+ 0.5 0 1 cbr 1000 ------- 2 0.0 2.0 0 0
- 0.5 0 1 cbr 1000 ------- 2 0.0 2.0 0 0
+ 0.55 0 1 cbr 1000 ------- 2 0.0 2.0 1 1
- 0.55 0 1 cbr 1000 ------- 2 0.0 2.0 1 1
r 0.558 0 1 cbr 1000 ------- 2 0.0 2.0 0 0
+ 0.558 1 2 cbr 1000 ------- 2 0.0 2.0 0 0
- 0.558 1 2 cbr 1000 ------- 2 0.0 2.0 0 0
+ 0.6 0 1 cbr 1000 ------- 2 0.0 2.0 2 2
- 0.6 0 1 cbr 1000 ------- 2 0.0 2.0 2 2
r 0.608 0 1 cbr 1000 ------- 2 0.0 2.0 1 1
+ 0.608 1 2 cbr 1000 ------- 2 0.0 2.0 1 1
- 0.638 1 2 cbr 1000 ------- 2 0.0 2.0 1 1
r 0.643 1 2 cbr 1000 ------- 2 0.0 2.0 0 0
+ 0.65 0 1 cbr 1000 ------- 2 0.0 2.0 3 3
- 0.65 0 1 cbr 1000 ------- 2 0.0 2.0 3 3
r 0.658 0 1 cbr 1000 ------- 2 0.0 2.0 2 2
+ 0.658 1 2 cbr 1000 ------- 2 0.0 2.0 2 2
+ 0.7 0 1 cbr 1000 ------- 2 0.0 2.0 4 4
- 0.7 0 1 cbr 1000 ------- 2 0.0 2.0 4 4
r 0.708 0 1 cbr 1000 ------- 2 0.0 2.0 3 3
+ 0.708 1 2 cbr 1000 ------- 2 0.0 2.0 3 3
- 0.718 1 2 cbr 1000 ------- 2 0.0 2.0 2 2
r 0.723 1 2 cbr 1000 ------- 2 0.0 2.0 1 1
+ 0.75 0 1 cbr 1000 ------- 2 0.0 2.0 5 5
- 0.75 0 1 cbr 1000 ------- 2 0.0 2.0 5 5
r 0.758 0 1 cbr 1000 ------- 2 0.0 2.0 4 4
+ 0.758 1 2 cbr 1000 ------- 2 0.0 2.0 4 4
- 0.798 1 2 cbr 1000 ------- 2 0.0 2.0 3 3
+ 0.8 0 1 cbr 1000 ------- 2 0.0 2.0 6 6
- 0.8 0 1 cbr 1000 ------- 2 0.0 2.0 6 6
r 0.803 1 2 cbr 1000 ------- 2 0.0 2.0 2 2
r 0.808 0 1 cbr 1000 ------- 2 0.0 2.0 5 5
+ 0.808 1 2 cbr 1000 ------- 2 0.0 2.0 5 5
+ 0.85 0 1 cbr 1000 ------- 2 0.0 2.0 7 7
- 0.85 0 1 cbr 1000 ------- 2 0.0 2.0 7 7
r 0.858 0 1 cbr 1000 ------- 2 0.0 2.0 6 6
+ 0.858 1 2 cbr 1000 ------- 2 0.0 2.0 6 6
- 0.878 1 2 cbr 1000 ------- 2 0.0 2.0 4 4
r 0.883 1 2 cbr 1000 ------- 2 0.0 2.0 3 3
+ 0.9 0 1 cbr 1000 ------- 2 0.0 2.0 8 8
- 0.9 0 1 cbr 1000 ------- 2 0.0 2.0 8 8
r 0.908 0 1 cbr 1000 ------- 2 0.0 2.0 7 7
+ 0.908 1 2 cbr 1000 ------- 2 0.0 2.0 7 7
+ 0.95 0 1 cbr 1000 ------- 2 0.0 2.0 9 9
- 0.95 0 1 cbr 1000 ------- 2 0.0 2.0 9 9
- 0.958 1 2 cbr 1000 ------- 2 0.0 2.0 5 5
r 0.958 0 1 cbr 1000 ------- 2 0.0 2.0 8 8
+ 0.958 1 2 cbr 1000 ------- 2 0.0 2.0 8 8
r 0.963 1 2 cbr 1000 ------- 2 0.0 2.0 4 4
+ 1 0 1 cbr 1000 ------- 2 0.0 2.0 10 10
- 1 0 1 cbr 1000 ------- 2 0.0 2.0 10 10
r 1.008 0 1 cbr 1000 ------- 2 0.0 2.0 9 9
+ 1.008 1 2 cbr 1000 ------- 2 0.0 2.0 9 9
- 1.038 1 2 cbr 1000 ------- 2 0.0 2.0 6 6
r 1.043 1 2 cbr 1000 ------- 2 0.0 2.0 5 5
+ 1.05 0 1 cbr 1000 ------- 2 0.0 2.0 11 11
- 1.05 0 1 cbr 1000 ------- 2 0.0 2.0 11 11
r 1.058 0 1 cbr 1000 ------- 2 0.0 2.0 10 10
+ 1.058 1 2 cbr 1000 ------- 2 0.0 2.0 10 10
+ 1.1 0 1 cbr 1000 ------- 2 0.0 2.0 12 12
- 1.1 0 1 cbr 1000 ------- 2 0.0 2.0 12 12
r 1.108 0 1 cbr 1000 ------- 2 0.0 2.0 11 11
+ 1.108 1 2 cbr 1000 ------- 2 0.0 2.0 11 11
- 1.118 1 2 cbr 1000 ------- 2 0.0 2.0 7 7
r 1.123 1 2 cbr 1000 ------- 2 0.0 2.0 6 6
+ 1.15 0 1 cbr 1000 ------- 2 0.0 2.0 13 13
- 1.15 0 1 cbr 1000 ------- 2 0.0 2.0 13 13
r 1.158 0 1 cbr 1000 ------- 2 0.0 2.0 12 12
+ 1.158 1 2 cbr 1000 ------- 2 0.0 2.0 12 12
- 1.198 1 2 cbr 1000 ------- 2 0.0 2.0 8 8
+ 1.2 0 1 cbr 1000 ------- 2 0.0 2.0 14 14
- 1.2 0 1 cbr 1000 ------- 2 0.0 2.0 14 14
r 1.203 1 2 cbr 1000 ------- 2 0.0 2.0 7 7
r 1.208 0 1 cbr 1000 ------- 2 0.0 2.0 13 13
+ 1.208 1 2 cbr 1000 ------- 2 0.0 2.0 13 13
+ 1.25 0 1 cbr 1000 ------- 2 0.0 2.0 15 15
- 1.25 0 1 cbr 1000 ------- 2 0.0 2.0 15 15
r 1.258 0 1 cbr 1000 ------- 2 0.0 2.0 14 14
+ 1.258 1 2 cbr 1000 ------- 2 0.0 2.0 14 14
- 1.278 1 2 cbr 1000 ------- 2 0.0 2.0 9 9
r 1.283 1 2 cbr 1000 ------- 2 0.0 2.0 8 8
+ 1.3 0 1 cbr 1000 ------- 2 0.0 2.0 16 16
- 1.3 0 1 cbr 1000 ------- 2 0.0 2.0 16 16
r 1.308 0 1 cbr 1000 ------- 2 0.0 2.0 15 15
+ 1.308 1 2 cbr 1000 ------- 2 0.0 2.0 15 15
+ 1.35 0 1 cbr 1000 ------- 2 0.0 2.0 17 17
- 1.35 0 1 cbr 1000 ------- 2 0.0 2.0 17 17
- 1.358 1 2 cbr 1000 ------- 2 0.0 2.0 10 10
r 1.358 0 1 cbr 1000 ------- 2 0.0 2.0 16 16
+ 1.358 1 2 cbr 1000 ------- 2 0.0 2.0 16 16
r 1.363 1 2 cbr 1000 ------- 2 0.0 2.0 9 9
+ 1.4 0 1 cbr 1000 ------- 2 0.0 2.0 18 18
- 1.4 0 1 cbr 1000 ------- 2 0.0 2.0 18 18
r 1.408 0 1 cbr 1000 ------- 2 0.0 2.0 17 17
+ 1.408 1 2 cbr 1000 ------- 2 0.0 2.0 17 17
- 1.438 1 2 cbr 1000 ------- 2 0.0 2.0 11 11
r 1.443 1 2 cbr 1000 ------- 2 0.0 2.0 10 10
+ 1.45 0 1 cbr 1000 ------- 2 0.0 2.0 19 19
- 1.45 0 1 cbr 1000 ------- 2 0.0 2.0 19 19
r 1.458 0 1 cbr 1000 ------- 2 0.0 2.0 18 18
+ 1.458 1 2 cbr 1000 ------- 2 0.0 2.0 18 18
+ 1.5 0 1 cbr 1000 ------- 2 0.0 2.0 20 20
- 1.5 0 1 cbr 1000 ------- 2 0.0 2.0 20 20
r 1.508 0 1 cbr 1000 ------- 2 0.0 2.0 19 19
+ 1.508 1 2 cbr 1000 ------- 2 0.0 2.0 19 19
- 1.518 1 2 cbr 1000 ------- 2 0.0 2.0 12 12
r 1.523 1 2 cbr 1000 ------- 2 0.0 2.0 11 11
+ 1.55 0 1 cbr 1000 ------- 2 0.0 2.0 21 21
- 1.55 0 1 cbr 1000 ------- 2 0.0 2.0 21 21
r 1.558 0 1 cbr 1000 ------- 2 0.0 2.0 20 20
+ 1.558 1 2 cbr 1000 ------- 2 0.0 2.0 20 20
- 1.598 1 2 cbr 1000 ------- 2 0.0 2.0 13 13
+ 1.6 0 1 cbr 1000 ------- 2 0.0 2.0 22 22
- 1.6 0 1 cbr 1000 ------- 2 0.0 2.0 22 22
r 1.603 1 2 cbr 1000 ------- 2 0.0 2.0 12 12
r 1.608 0 1 cbr 1000 ------- 2 0.0 2.0 21 21
+ 1.608 1 2 cbr 1000 ------- 2 0.0 2.0 21 21
+ 1.65 0 1 cbr 1000 ------- 2 0.0 2.0 23 23
- 1.65 0 1 cbr 1000 ------- 2 0.0 2.0 23 23
r 1.658 0 1 cbr 1000 ------- 2 0.0 2.0 22 22
+ 1.658 1 2 cbr 1000 ------- 2 0.0 2.0 22 22
- 1.678 1 2 cbr 1000 ------- 2 0.0 2.0 14 14
r 1.683 1 2 cbr 1000 ------- 2 0.0 2.0 13 13
+ 1.7 0 1 cbr 1000 ------- 2 0.0 2.0 24 24
- 1.7 0 1 cbr 1000 ------- 2 0.0 2.0 24 24
r 1.708 0 1 cbr 1000 ------- 2 0.0 2.0 23 23
+ 1.708 1 2 cbr 1000 ------- 2 0.0 2.0 23 23
+ 1.75 0 1 cbr 1000 ------- 2 0.0 2.0 25 25
- 1.75 0 1 cbr 1000 ------- 2 0.0 2.0 25 25
- 1.758 1 2 cbr 1000 ------- 2 0.0 2.0 15 15
r 1.758 0 1 cbr 1000 ------- 2 0.0 2.0 24 24
+ 1.758 1 2 cbr 1000 ------- 2 0.0 2.0 24 24
r 1.763 1 2 cbr 1000 ------- 2 0.0 2.0 14 14
+ 1.8 0 1 cbr 1000 ------- 2 0.0 2.0 26 26
- 1.8 0 1 cbr 1000 ------- 2 0.0 2.0 26 26
r 1.808 0 1 cbr 1000 ------- 2 0.0 2.0 25 25
+ 1.808 1 2 cbr 1000 ------- 2 0.0 2.0 25 25
d 1.808 1 2 cbr 1000 ------- 2 0.0 2.0 25 25
- 1.838 1 2 cbr 1000 ------- 2 0.0 2.0 16 16
r 1.843 1 2 cbr 1000 ------- 2 0.0 2.0 15 15
+ 1.85 0 1 cbr 1000 ------- 2 0.0 2.0 27 27
- 1.85 0 1 cbr 1000 ------- 2 0.0 2.0 27 27
r 1.858 0 1 cbr 1000 ------- 2 0.0 2.0 26 26
+ 1.858 1 2 cbr 1000 ------- 2 0.0 2.0 26 26
+ 1.9 0 1 cbr 1000 ------- 2 0.0 2.0 28 28
- 1.9 0 1 cbr 1000 ------- 2 0.0 2.0 28 28
r 1.908 0 1 cbr 1000 ------- 2 0.0 2.0 27 27
+ 1.908 1 2 cbr 1000 ------- 2 0.0 2.0 27 27
d 1.908 1 2 cbr 1000 ------- 2 0.0 2.0 27 27
- 1.918 1 2 cbr 1000 ------- 2 0.0 2.0 17 17
r 1.923 1 2 cbr 1000 ------- 2 0.0 2.0 16 16
+ 1.95 0 1 cbr 1000 ------- 2 0.0 2.0 29 29
- 1.95 0 1 cbr 1000 ------- 2 0.0 2.0 29 29
r 1.958 0 1 cbr 1000 ------- 2 0.0 2.0 28 28
+ 1.958 1 2 cbr 1000 ------- 2 0.0 2.0 28 28
- 1.998 1 2 cbr 1000 ------- 2 0.0 2.0 18 18
+ 2 0 1 cbr 1000 ------- 2 0.0 2.0 30 30
- 2 0 1 cbr 1000 ------- 2 0.0 2.0 30 30
r 2.003 1 2 cbr 1000 ------- 2 0.0 2.0 17 17
r 2.008 0 1 cbr 1000 ------- 2 0.0 2.0 29 29
+ 2.008 1 2 cbr 1000 ------- 2 0.0 2.0 29 29
+ 2.05 0 1 cbr 1000 ------- 2 0.0 2.0 31 31
- 2.05 0 1 cbr 1000 ------- 2 0.0 2.0 31 31
r 2.058 0 1 cbr 1000 ------- 2 0.0 2.0 30 30
+ 2.058 1 2 cbr 1000 ------- 2 0.0 2.0 30 30
d 2.058 1 2 cbr 1000 ------- 2 0.0 2.0 30 30
- 2.078 1 2 cbr 1000 ------- 2 0.0 2.0 19 19
r 2.083 1 2 cbr 1000 ------- 2 0.0 2.0 18 18
+ 2.1 0 1 cbr 1000 ------- 2 0.0 2.0 32 32
- 2.1 0 1 cbr 1000 ------- 2 0.0 2.0 32 32
r 2.108 0 1 cbr 1000 ------- 2 0.0 2.0 31 31
+ 2.108 1 2 cbr 1000 ------- 2 0.0 2.0 31 31
+ 2.15 0 1 cbr 1000 ------- 2 0.0 2.0 33 33
- 2.15 0 1 cbr 1000 ------- 2 0.0 2.0 33 33
- 2.158 1 2 cbr 1000 ------- 2 0.0 2.0 20 20
r 2.158 0 1 cbr 1000 ------- 2 0.0 2.0 32 32
+ 2.158 1 2 cbr 1000 ------- 2 0.0 2.0 32 32
r 2.163 1 2 cbr 1000 ------- 2 0.0 2.0 19 19
+ 2.2 0 1 cbr 1000 ------- 2 0.0 2.0 34 34
- 2.2 0 1 cbr 1000 ------- 2 0.0 2.0 34 34
r 2.208 0 1 cbr 1000 ------- 2 0.0 2.0 33 33
+ 2.208 1 2 cbr 1000 ------- 2 0.0 2.0 33 33
d 2.208 1 2 cbr 1000 ------- 2 0.0 2.0 33 33
- 2.238 1 2 cbr 1000 ------- 2 0.0 2.0 21 21
r 2.243 1 2 cbr 1000 ------- 2 0.0 2.0 20 20
+ 2.25 0 1 cbr 1000 ------- 2 0.0 2.0 35 35
- 2.25 0 1 cbr 1000 ------- 2 0.0 2.0 35 35
r 2.258 0 1 cbr 1000 ------- 2 0.0 2.0 34 34
+ 2.258 1 2 cbr 1000 ------- 2 0.0 2.0 34 34
+ 2.3 0 1 cbr 1000 ------- 2 0.0 2.0 36 36
- 2.3 0 1 cbr 1000 ------- 2 0.0 2.0 36 36
r 2.308 0 1 cbr 1000 ------- 2 0.0 2.0 35 35
+ 2.308 1 2 cbr 1000 ------- 2 0.0 2.0 35 35
d 2.308 1 2 cbr 1000 ------- 2 0.0 2.0 35 35
- 2.318 1 2 cbr 1000 ------- 2 0.0 2.0 22 22
r 2.323 1 2 cbr 1000 ------- 2 0.0 2.0 21 21
+ 2.35 0 1 cbr 1000 ------- 2 0.0 2.0 37 37
- 2.35 0 1 cbr 1000 ------- 2 0.0 2.0 37 37
r 2.358 0 1 cbr 1000 ------- 2 0.0 2.0 36 36
+ 2.358 1 2 cbr 1000 ------- 2 0.0 2.0 36 36
- 2.398 1 2 cbr 1000 ------- 2 0.0 2.0 23 23
+ 2.4 0 1 cbr 1000 ------- 2 0.0 2.0 38 38
- 2.4 0 1 cbr 1000 ------- 2 0.0 2.0 38 38
r 2.403 1 2 cbr 1000 ------- 2 0.0 2.0 22 22
r 2.408 0 1 cbr 1000 ------- 2 0.0 2.0 37 37
+ 2.408 1 2 cbr 1000 ------- 2 0.0 2.0 37 37
+ 2.45 0 1 cbr 1000 ------- 2 0.0 2.0 39 39
- 2.45 0 1 cbr 1000 ------- 2 0.0 2.0 39 39
r 2.458 0 1 cbr 1000 ------- 2 0.0 2.0 38 38
+ 2.458 1 2 cbr 1000 ------- 2 0.0 2.0 38 38
d 2.458 1 2 cbr 1000 ------- 2 0.0 2.0 38 38
- 2.478 1 2 cbr 1000 ------- 2 0.0 2.0 24 24
r 2.483 1 2 cbr 1000 ------- 2 0.0 2.0 23 23
+ 2.5 0 1 cbr 1000 ------- 2 0.0 2.0 40 40
- 2.5 0 1 cbr 1000 ------- 2 0.0 2.0 40 40
r 2.508 0 1 cbr 1000 ------- 2 0.0 2.0 39 39
+ 2.508 1 2 cbr 1000 ------- 2 0.0 2.0 39 39
+ 2.55 0 1 cbr 1000 ------- 2 0.0 2.0 41 41
- 2.55 0 1 cbr 1000 ------- 2 0.0 2.0 41 41
r 2.558 0 1 cbr 1000 ------- 2 0.0 2.0 40 40
+ 2.558 1 2 cbr 1000 ------- 2 0.0 2.0 40 40
d 2.558 1 2 cbr 1000 ------- 2 0.0 2.0 40 40
- 2.558 1 2 cbr 1000 ------- 2 0.0 2.0 26 26
r 2.563 1 2 cbr 1000 ------- 2 0.0 2.0 24 24
+ 2.6 0 1 cbr 1000 ------- 2 0.0 2.0 42 42
- 2.6 0 1 cbr 1000 ------- 2 0.0 2.0 42 42
r 2.608 0 1 cbr 1000 ------- 2 0.0 2.0 41 41
+ 2.608 1 2 cbr 1000 ------- 2 0.0 2.0 41 41
- 2.638 1 2 cbr 1000 ------- 2 0.0 2.0 28 28
r 2.643 1 2 cbr 1000 ------- 2 0.0 2.0 26 26
+ 2.65 0 1 cbr 1000 ------- 2 0.0 2.0 43 43
- 2.65 0 1 cbr 1000 ------- 2 0.0 2.0 43 43
r 2.658 0 1 cbr 1000 ------- 2 0.0 2.0 42 42
+ 2.658 1 2 cbr 1000 ------- 2 0.0 2.0 42 42
+ 2.7 0 1 cbr 1000 ------- 2 0.0 2.0 44 44
- 2.7 0 1 cbr 1000 ------- 2 0.0 2.0 44 44
r 2.708 0 1 cbr 1000 ------- 2 0.0 2.0 43 43
+ 2.708 1 2 cbr 1000 ------- 2 0.0 2.0 43 43
d 2.708 1 2 cbr 1000 ------- 2 0.0 2.0 43 43
- 2.718 1 2 cbr 1000 ------- 2 0.0 2.0 29 29
r 2.723 1 2 cbr 1000 ------- 2 0.0 2.0 28 28
+ 2.75 0 1 cbr 1000 ------- 2 0.0 2.0 45 45
- 2.75 0 1 cbr 1000 ------- 2 0.0 2.0 45 45
r 2.758 0 1 cbr 1000 ------- 2 0.0 2.0 44 44
+ 2.758 1 2 cbr 1000 ------- 2 0.0 2.0 44 44
- 2.798 1 2 cbr 1000 ------- 2 0.0 2.0 31 31
+ 2.8 0 1 cbr 1000 ------- 2 0.0 2.0 46 46
- 2.8 0 1 cbr 1000 ------- 2 0.0 2.0 46 46
r 2.803 1 2 cbr 1000 ------- 2 0.0 2.0 29 29
r 2.808 0 1 cbr 1000 ------- 2 0.0 2.0 45 45
+ 2.808 1 2 cbr 1000 ------- 2 0.0 2.0 45 45
+ 2.85 0 1 cbr 1000 ------- 2 0.0 2.0 47 47
- 2.85 0 1 cbr 1000 ------- 2 0.0 2.0 47 47
r 2.858 0 1 cbr 1000 ------- 2 0.0 2.0 46 46
+ 2.858 1 2 cbr 1000 ------- 2 0.0 2.0 46 46
d 2.858 1 2 cbr 1000 ------- 2 0.0 2.0 46 46
- 2.878 1 2 cbr 1000 ------- 2 0.0 2.0 32 32
r 2.883 1 2 cbr 1000 ------- 2 0.0 2.0 31 31
+ 2.9 0 1 cbr 1000 ------- 2 0.0 2.0 48 48
- 2.9 0 1 cbr 1000 ------- 2 0.0 2.0 48 48
r 2.908 0 1 cbr 1000 ------- 2 0.0 2.0 47 47
+ 2.908 1 2 cbr 1000 ------- 2 0.0 2.0 47 47
+ 2.95 0 1 cbr 1000 ------- 2 0.0 2.0 49 49
- 2.95 0 1 cbr 1000 ------- 2 0.0 2.0 49 49
r 2.958 0 1 cbr 1000 ------- 2 0.0 2.0 48 48
+ 2.958 1 2 cbr 1000 ------- 2 0.0 2.0 48 48
d 2.958 1 2 cbr 1000 ------- 2 0.0 2.0 48 48
- 2.958 1 2 cbr 1000 ------- 2 0.0 2.0 34 34
r 2.963 1 2 cbr 1000 ------- 2 0.0 2.0 32 32
+ 3 0 1 cbr 1000 ------- 2 0.0 2.0 50 50
- 3 0 1 cbr 1000 ------- 2 0.0 2.0 50 50
r 3.008 0 1 cbr 1000 ------- 2 0.0 2.0 49 49
+ 3.008 1 2 cbr 1000 ------- 2 0.0 2.0 49 49
- 3.038 1 2 cbr 1000 ------- 2 0.0 2.0 36 36
r 3.043 1 2 cbr 1000 ------- 2 0.0 2.0 34 34
+ 3.05 0 1 cbr 1000 ------- 2 0.0 2.0 51 51
- 3.05 0 1 cbr 1000 ------- 2 0.0 2.0 51 51
r 3.058 0 1 cbr 1000 ------- 2 0.0 2.0 50 50
+ 3.058 1 2 cbr 1000 ------- 2 0.0 2.0 50 50
+ 3.1 0 1 cbr 1000 ------- 2 0.0 2.0 52 52
- 3.1 0 1 cbr 1000 ------- 2 0.0 2.0 52 52
r 3.108 0 1 cbr 1000 ------- 2 0.0 2.0 51 51
+ 3.108 1 2 cbr 1000 ------- 2 0.0 2.0 51 51
d 3.108 1 2 cbr 1000 ------- 2 0.0 2.0 51 51
- 3.118 1 2 cbr 1000 ------- 2 0.0 2.0 37 37
r 3.123 1 2 cbr 1000 ------- 2 0.0 2.0 36 36
+ 3.15 0 1 cbr 1000 ------- 2 0.0 2.0 53 53
- 3.15 0 1 cbr 1000 ------- 2 0.0 2.0 53 53
r 3.158 0 1 cbr 1000 ------- 2 0.0 2.0 52 52
+ 3.158 1 2 cbr 1000 ------- 2 0.0 2.0 52 52
- 3.198 1 2 cbr 1000 ------- 2 0.0 2.0 39 39
+ 3.2 0 1 cbr 1000 ------- 2 0.0 2.0 54 54
- 3.2 0 1 cbr 1000 ------- 2 0.0 2.0 54 54
r 3.203 1 2 cbr 1000 ------- 2 0.0 2.0 37 37
r 3.208 0 1 cbr 1000 ------- 2 0.0 2.0 53 53
+ 3.208 1 2 cbr 1000 ------- 2 0.0 2.0 53 53
+ 3.25 0 1 cbr 1000 ------- 2 0.0 2.0 55 55
- 3.25 0 1 cbr 1000 ------- 2 0.0 2.0 55 55
r 3.258 0 1 cbr 1000 ------- 2 0.0 2.0 54 54
+ 3.258 1 2 cbr 1000 ------- 2 0.0 2.0 54 54
d 3.258 1 2 cbr 1000 ------- 2 0.0 2.0 54 54
- 3.278 1 2 cbr 1000 ------- 2 0.0 2.0 41 41
r 3.283 1 2 cbr 1000 ------- 2 0.0 2.0 39 39
+ 3.3 0 1 cbr 1000 ------- 2 0.0 2.0 56 56
- 3.3 0 1 cbr 1000 ------- 2 0.0 2.0 56 56
r 3.308 0 1 cbr 1000 ------- 2 0.0 2.0 55 55
+ 3.308 1 2 cbr 1000 ------- 2 0.0 2.0 55 55
+ 3.35 0 1 cbr 1000 ------- 2 0.0 2.0 57 57
- 3.35 0 1 cbr 1000 ------- 2 0.0 2.0 57 57
r 3.358 0 1 cbr 1000 ------- 2 0.0 2.0 56 56
+ 3.358 1 2 cbr 1000 ------- 2 0.0 2.0 56 56
d 3.358 1 2 cbr 1000 ------- 2 0.0 2.0 56 56
- 3.358 1 2 cbr 1000 ------- 2 0.0 2.0 42 42
r 3.363 1 2 cbr 1000 ------- 2 0.0 2.0 41 41
+ 3.4 0 1 cbr 1000 ------- 2 0.0 2.0 58 58
- 3.4 0 1 cbr 1000 ------- 2 0.0 2.0 58 58
r 3.408 0 1 cbr 1000 ------- 2 0.0 2.0 57 57
+ 3.408 1 2 cbr 1000 ------- 2 0.0 2.0 57 57
- 3.438 1 2 cbr 1000 ------- 2 0.0 2.0 44 44
r 3.443 1 2 cbr 1000 ------- 2 0.0 2.0 42 42
+ 3.45 0 1 cbr 1000 ------- 2 0.0 2.0 59 59
- 3.45 0 1 cbr 1000 ------- 2 0.0 2.0 59 59
r 3.458 0 1 cbr 1000 ------- 2 0.0 2.0 58 58
+ 3.458 1 2 cbr 1000 ------- 2 0.0 2.0 58 58
+ 3.5 0 1 cbr 1000 ------- 2 0.0 2.0 60 60
- 3.5 0 1 cbr 1000 ------- 2 0.0 2.0 60 60
r 3.508 0 1 cbr 1000 ------- 2 0.0 2.0 59 59
+ 3.508 1 2 cbr 1000 ------- 2 0.0 2.0 59 59
d 3.508 1 2 cbr 1000 ------- 2 0.0 2.0 59 59
- 3.518 1 2 cbr 1000 ------- 2 0.0 2.0 45 45
r 3.523 1 2 cbr 1000 ------- 2 0.0 2.0 44 44
+ 3.55 0 1 cbr 1000 ------- 2 0.0 2.0 61 61
- 3.55 0 1 cbr 1000 ------- 2 0.0 2.0 61 61
r 3.558 0 1 cbr 1000 ------- 2 0.0 2.0 60 60
+ 3.558 1 2 cbr 1000 ------- 2 0.0 2.0 60 60
- 3.598 1 2 cbr 1000 ------- 2 0.0 2.0 47 47
+ 3.6 0 1 cbr 1000 ------- 2 0.0 2.0 62 62
- 3.6 0 1 cbr 1000 ------- 2 0.0 2.0 62 62
r 3.603 1 2 cbr 1000 ------- 2 0.0 2.0 45 45
r 3.608 0 1 cbr 1000 ------- 2 0.0 2.0 61 61
+ 3.608 1 2 cbr 1000 ------- 2 0.0 2.0 61 61
+ 3.65 0 1 cbr 1000 ------- 2 0.0 2.0 63 63
- 3.65 0 1 cbr 1000 ------- 2 0.0 2.0 63 63
r 3.658 0 1 cbr 1000 ------- 2 0.0 2.0 62 62
+ 3.658 1 2 cbr 1000 ------- 2 0.0 2.0 62 62
d 3.658 1 2 cbr 1000 ------- 2 0.0 2.0 62 62
- 3.678 1 2 cbr 1000 ------- 2 0.0 2.0 49 49
r 3.683 1 2 cbr 1000 ------- 2 0.0 2.0 47 47
+ 3.7 0 1 cbr 1000 ------- 2 0.0 2.0 64 64
- 3.7 0 1 cbr 1000 ------- 2 0.0 2.0 64 64
r 3.708 0 1 cbr 1000 ------- 2 0.0 2.0 63 63
+ 3.708 1 2 cbr 1000 ------- 2 0.0 2.0 63 63
+ 3.75 0 1 cbr 1000 ------- 2 0.0 2.0 65 65
- 3.75 0 1 cbr 1000 ------- 2 0.0 2.0 65 65
r 3.758 0 1 cbr 1000 ------- 2 0.0 2.0 64 64
+ 3.758 1 2 cbr 1000 ------- 2 0.0 2.0 64 64
d 3.758 1 2 cbr 1000 ------- 2 0.0 2.0 64 64
- 3.758 1 2 cbr 1000 ------- 2 0.0 2.0 50 50
r 3.763 1 2 cbr 1000 ------- 2 0.0 2.0 49 49
+ 3.8 0 1 cbr 1000 ------- 2 0.0 2.0 66 66
- 3.8 0 1 cbr 1000 ------- 2 0.0 2.0 66 66
r 3.808 0 1 cbr 1000 ------- 2 0.0 2.0 65 65
+ 3.808 1 2 cbr 1000 ------- 2 0.0 2.0 65 65
- 3.838 1 2 cbr 1000 ------- 2 0.0 2.0 52 52
r 3.843 1 2 cbr 1000 ------- 2 0.0 2.0 50 50
+ 3.85 0 1 cbr 1000 ------- 2 0.0 2.0 67 67
- 3.85 0 1 cbr 1000 ------- 2 0.0 2.0 67 67
r 3.858 0 1 cbr 1000 ------- 2 0.0 2.0 66 66
+ 3.858 1 2 cbr 1000 ------- 2 0.0 2.0 66 66
+ 3.9 0 1 cbr 1000 ------- 2 0.0 2.0 68 68
- 3.9 0 1 cbr 1000 ------- 2 0.0 2.0 68 68
r 3.908 0 1 cbr 1000 ------- 2 0.0 2.0 67 67
+ 3.908 1 2 cbr 1000 ------- 2 0.0 2.0 67 67
d 3.908 1 2 cbr 1000 ------- 2 0.0 2.0 67 67
- 3.918 1 2 cbr 1000 ------- 2 0.0 2.0 53 53
r 3.923 1 2 cbr 1000 ------- 2 0.0 2.0 52 52
+ 3.95 0 1 cbr 1000 ------- 2 0.0 2.0 69 69
- 3.95 0 1 cbr 1000 ------- 2 0.0 2.0 69 69
r 3.958 0 1 cbr 1000 ------- 2 0.0 2.0 68 68
+ 3.958 1 2 cbr 1000 ------- 2 0.0 2.0 68 68
- 3.998 1 2 cbr 1000 ------- 2 0.0 2.0 55 55
+ 4 0 1 cbr 1000 ------- 2 0.0 2.0 70 70
- 4 0 1 cbr 1000 ------- 2 0.0 2.0 70 70
r 4.003 1 2 cbr 1000 ------- 2 0.0 2.0 53 53
r 4.008 0 1 cbr 1000 ------- 2 0.0 2.0 69 69
+ 4.008 1 2 cbr 1000 ------- 2 0.0 2.0 69 69
+ 4.05 0 1 cbr 1000 ------- 2 0.0 2.0 71 71
- 4.05 0 1 cbr 1000 ------- 2 0.0 2.0 71 71
r 4.058 0 1 cbr 1000 ------- 2 0.0 2.0 70 70
+ 4.058 1 2 cbr 1000 ------- 2 0.0 2.0 70 70
d 4.058 1 2 cbr 1000 ------- 2 0.0 2.0 70 70
- 4.078 1 2 cbr 1000 ------- 2 0.0 2.0 57 57
r 4.083 1 2 cbr 1000 ------- 2 0.0 2.0 55 55
+ 4.1 0 1 cbr 1000 ------- 2 0.0 2.0 72 72
- 4.1 0 1 cbr 1000 ------- 2 0.0 2.0 72 72
r 4.108 0 1 cbr 1000 ------- 2 0.0 2.0 71 71
+ 4.108 1 2 cbr 1000 ------- 2 0.0 2.0 71 71
+ 4.15 0 1 cbr 1000 ------- 2 0.0 2.0 73 73
- 4.15 0 1 cbr 1000 ------- 2 0.0 2.0 73 73
r 4.158 0 1 cbr 1000 ------- 2 0.0 2.0 72 72
+ 4.158 1 2 cbr 1000 ------- 2 0.0 2.0 72 72
d 4.158 1 2 cbr 1000 ------- 2 0.0 2.0 72 72
- 4.158 1 2 cbr 1000 ------- 2 0.0 2.0 58 58
r 4.163 1 2 cbr 1000 ------- 2 0.0 2.0 57 57
+ 4.2 0 1 cbr 1000 ------- 2 0.0 2.0 74 74
- 4.2 0 1 cbr 1000 ------- 2 0.0 2.0 74 74
r 4.208 0 1 cbr 1000 ------- 2 0.0 2.0 73 73
+ 4.208 1 2 cbr 1000 ------- 2 0.0 2.0 73 73
- 4.238 1 2 cbr 1000 ------- 2 0.0 2.0 60 60
r 4.243 1 2 cbr 1000 ------- 2 0.0 2.0 58 58
+ 4.25 0 1 cbr 1000 ------- 2 0.0 2.0 75 75
- 4.25 0 1 cbr 1000 ------- 2 0.0 2.0 75 75
r 4.258 0 1 cbr 1000 ------- 2 0.0 2.0 74 74
+ 4.258 1 2 cbr 1000 ------- 2 0.0 2.0 74 74
+ 4.3 0 1 cbr 1000 ------- 2 0.0 2.0 76 76
- 4.3 0 1 cbr 1000 ------- 2 0.0 2.0 76 76
r 4.308 0 1 cbr 1000 ------- 2 0.0 2.0 75 75
+ 4.308 1 2 cbr 1000 ------- 2 0.0 2.0 75 75
d 4.308 1 2 cbr 1000 ------- 2 0.0 2.0 75 75
- 4.318 1 2 cbr 1000 ------- 2 0.0 2.0 61 61
r 4.323 1 2 cbr 1000 ------- 2 0.0 2.0 60 60
+ 4.35 0 1 cbr 1000 ------- 2 0.0 2.0 77 77
- 4.35 0 1 cbr 1000 ------- 2 0.0 2.0 77 77
r 4.358 0 1 cbr 1000 ------- 2 0.0 2.0 76 76
+ 4.358 1 2 cbr 1000 ------- 2 0.0 2.0 76 76
- 4.398 1 2 cbr 1000 ------- 2 0.0 2.0 63 63
+ 4.4 0 1 cbr 1000 ------- 2 0.0 2.0 78 78
- 4.4 0 1 cbr 1000 ------- 2 0.0 2.0 78 78
r 4.403 1 2 cbr 1000 ------- 2 0.0 2.0 61 61
r 4.408 0 1 cbr 1000 ------- 2 0.0 2.0 77 77
+ 4.408 1 2 cbr 1000 ------- 2 0.0 2.0 77 77
+ 4.45 0 1 cbr 1000 ------- 2 0.0 2.0 79 79
- 4.45 0 1 cbr 1000 ------- 2 0.0 2.0 79 79
r 4.458 0 1 cbr 1000 ------- 2 0.0 2.0 78 78
+ 4.458 1 2 cbr 1000 ------- 2 0.0 2.0 78 78
d 4.458 1 2 cbr 1000 ------- 2 0.0 2.0 78 78
- 4.478 1 2 cbr 1000 ------- 2 0.0 2.0 65 65
r 4.483 1 2 cbr 1000 ------- 2 0.0 2.0 63 63
+ 4.5 0 1 cbr 1000 ------- 2 0.0 2.0 80 80
- 4.5 0 1 cbr 1000 ------- 2 0.0 2.0 80 80
r 4.508 0 1 cbr 1000 ------- 2 0.0 2.0 79 79
+ 4.508 1 2 cbr 1000 ------- 2 0.0 2.0 79 79
+ 4.55 0 1 cbr 1000 ------- 2 0.0 2.0 81 81
- 4.55 0 1 cbr 1000 ------- 2 0.0 2.0 81 81
r 4.558 0 1 cbr 1000 ------- 2 0.0 2.0 80 80
+ 4.558 1 2 cbr 1000 ------- 2 0.0 2.0 80 80
d 4.558 1 2 cbr 1000 ------- 2 0.0 2.0 80 80
- 4.558 1 2 cbr 1000 ------- 2 0.0 2.0 66 66
r 4.563 1 2 cbr 1000 ------- 2 0.0 2.0 65 65
+ 4.6 0 1 cbr 1000 ------- 2 0.0 2.0 82 82
- 4.6 0 1 cbr 1000 ------- 2 0.0 2.0 82 82
r 4.608 0 1 cbr 1000 ------- 2 0.0 2.0 81 81
+ 4.608 1 2 cbr 1000 ------- 2 0.0 2.0 81 81
- 4.638 1 2 cbr 1000 ------- 2 0.0 2.0 68 68
r 4.643 1 2 cbr 1000 ------- 2 0.0 2.0 66 66
+ 4.65 0 1 cbr 1000 ------- 2 0.0 2.0 83 83
- 4.65 0 1 cbr 1000 ------- 2 0.0 2.0 83 83
r 4.658 0 1 cbr 1000 ------- 2 0.0 2.0 82 82
+ 4.658 1 2 cbr 1000 ------- 2 0.0 2.0 82 82
+ 4.7 0 1 cbr 1000 ------- 2 0.0 2.0 84 84
- 4.7 0 1 cbr 1000 ------- 2 0.0 2.0 84 84
r 4.708 0 1 cbr 1000 ------- 2 0.0 2.0 83 83
+ 4.708 1 2 cbr 1000 ------- 2 0.0 2.0 83 83
d 4.708 1 2 cbr 1000 ------- 2 0.0 2.0 83 83
- 4.718 1 2 cbr 1000 ------- 2 0.0 2.0 69 69
r 4.723 1 2 cbr 1000 ------- 2 0.0 2.0 68 68
+ 4.75 0 1 cbr 1000 ------- 2 0.0 2.0 85 85
- 4.75 0 1 cbr 1000 ------- 2 0.0 2.0 85 85
r 4.758 0 1 cbr 1000 ------- 2 0.0 2.0 84 84
+ 4.758 1 2 cbr 1000 ------- 2 0.0 2.0 84 84
- 4.798 1 2 cbr 1000 ------- 2 0.0 2.0 71 71
+ 4.8 0 1 cbr 1000 ------- 2 0.0 2.0 86 86
- 4.8 0 1 cbr 1000 ------- 2 0.0 2.0 86 86
r 4.803 1 2 cbr 1000 ------- 2 0.0 2.0 69 69
r 4.808 0 1 cbr 1000 ------- 2 0.0 2.0 85 85
+ 4.808 1 2 cbr 1000 ------- 2 0.0 2.0 85 85
+ 4.85 0 1 cbr 1000 ------- 2 0.0 2.0 87 87
- 4.85 0 1 cbr 1000 ------- 2 0.0 2.0 87 87
r 4.858 0 1 cbr 1000 ------- 2 0.0 2.0 86 86
+ 4.858 1 2 cbr 1000 ------- 2 0.0 2.0 86 86
d 4.858 1 2 cbr 1000 ------- 2 0.0 2.0 86 86
- 4.878 1 2 cbr 1000 ------- 2 0.0 2.0 73 73
r 4.883 1 2 cbr 1000 ------- 2 0.0 2.0 71 71
+ 4.9 0 1 cbr 1000 ------- 2 0.0 2.0 88 88
- 4.9 0 1 cbr 1000 ------- 2 0.0 2.0 88 88
r 4.908 0 1 cbr 1000 ------- 2 0.0 2.0 87 87
+ 4.908 1 2 cbr 1000 ------- 2 0.0 2.0 87 87
+ 4.95 0 1 cbr 1000 ------- 2 0.0 2.0 89 89
- 4.95 0 1 cbr 1000 ------- 2 0.0 2.0 89 89
r 4.958 0 1 cbr 1000 ------- 2 0.0 2.0 88 88
+ 4.958 1 2 cbr 1000 ------- 2 0.0 2.0 88 88
d 4.958 1 2 cbr 1000 ------- 2 0.0 2.0 88 88
- 4.958 1 2 cbr 1000 ------- 2 0.0 2.0 74 74
r 4.963 1 2 cbr 1000 ------- 2 0.0 2.0 73 73
+ 5 0 1 cbr 1000 ------- 2 0.0 2.0 90 90
- 5 0 1 cbr 1000 ------- 2 0.0 2.0 90 90
r 5.008 0 1 cbr 1000 ------- 2 0.0 2.0 89 89
+ 5.008 1 2 cbr 1000 ------- 2 0.0 2.0 89 89
- 5.038 1 2 cbr 1000 ------- 2 0.0 2.0 76 76
r 5.043 1 2 cbr 1000 ------- 2 0.0 2.0 74 74
+ 5.05 0 1 cbr 1000 ------- 2 0.0 2.0 91 91
- 5.05 0 1 cbr 1000 ------- 2 0.0 2.0 91 91
r 5.058 0 1 cbr 1000 ------- 2 0.0 2.0 90 90
+ 5.058 1 2 cbr 1000 ------- 2 0.0 2.0 90 90
+ 5.1 0 1 cbr 1000 ------- 2 0.0 2.0 92 92
- 5.1 0 1 cbr 1000 ------- 2 0.0 2.0 92 92
r 5.108 0 1 cbr 1000 ------- 2 0.0 2.0 91 91
+ 5.108 1 2 cbr 1000 ------- 2 0.0 2.0 91 91
d 5.108 1 2 cbr 1000 ------- 2 0.0 2.0 91 91
- 5.118 1 2 cbr 1000 ------- 2 0.0 2.0 77 77
r 5.123 1 2 cbr 1000 ------- 2 0.0 2.0 76 76
+ 5.15 0 1 cbr 1000 ------- 2 0.0 2.0 93 93
- 5.15 0 1 cbr 1000 ------- 2 0.0 2.0 93 93
r 5.158 0 1 cbr 1000 ------- 2 0.0 2.0 92 92
+ 5.158 1 2 cbr 1000 ------- 2 0.0 2.0 92 92
- 5.198 1 2 cbr 1000 ------- 2 0.0 2.0 79 79
+ 5.2 0 1 cbr 1000 ------- 2 0.0 2.0 94 94
- 5.2 0 1 cbr 1000 ------- 2 0.0 2.0 94 94
r 5.203 1 2 cbr 1000 ------- 2 0.0 2.0 77 77
r 5.208 0 1 cbr 1000 ------- 2 0.0 2.0 93 93
+ 5.208 1 2 cbr 1000 ------- 2 0.0 2.0 93 93
+ 5.25 0 1 cbr 1000 ------- 2 0.0 2.0 95 95
- 5.25 0 1 cbr 1000 ------- 2 0.0 2.0 95 95
r 5.258 0 1 cbr 1000 ------- 2 0.0 2.0 94 94
+ 5.258 1 2 cbr 1000 ------- 2 0.0 2.0 94 94
d 5.258 1 2 cbr 1000 ------- 2 0.0 2.0 94 94
- 5.278 1 2 cbr 1000 ------- 2 0.0 2.0 81 81
r 5.283 1 2 cbr 1000 ------- 2 0.0 2.0 79 79
+ 5.3 0 1 cbr 1000 ------- 2 0.0 2.0 96 96
- 5.3 0 1 cbr 1000 ------- 2 0.0 2.0 96 96
r 5.308 0 1 cbr 1000 ------- 2 0.0 2.0 95 95
+ 5.308 1 2 cbr 1000 ------- 2 0.0 2.0 95 95
+ 5.35 0 1 cbr 1000 ------- 2 0.0 2.0 97 97
- 5.35 0 1 cbr 1000 ------- 2 0.0 2.0 97 97
r 5.358 0 1 cbr 1000 ------- 2 0.0 2.0 96 96
+ 5.358 1 2 cbr 1000 ------- 2 0.0 2.0 96 96
d 5.358 1 2 cbr 1000 ------- 2 0.0 2.0 96 96
- 5.358 1 2 cbr 1000 ------- 2 0.0 2.0 82 82
r 5.363 1 2 cbr 1000 ------- 2 0.0 2.0 81 81
+ 5.4 0 1 cbr 1000 ------- 2 0.0 2.0 98 98
- 5.4 0 1 cbr 1000 ------- 2 0.0 2.0 98 98
r 5.408 0 1 cbr 1000 ------- 2 0.0 2.0 97 97
+ 5.408 1 2 cbr 1000 ------- 2 0.0 2.0 97 97
- 5.438 1 2 cbr 1000 ------- 2 0.0 2.0 84 84
r 5.443 1 2 cbr 1000 ------- 2 0.0 2.0 82 82
+ 5.45 0 1 cbr 1000 ------- 2 0.0 2.0 99 99
- 5.45 0 1 cbr 1000 ------- 2 0.0 2.0 99 99
r 5.458 0 1 cbr 1000 ------- 2 0.0 2.0 98 98
+ 5.458 1 2 cbr 1000 ------- 2 0.0 2.0 98 98
+ 5.5 0 1 cbr 1000 ------- 2 0.0 2.0 100 100
- 5.5 0 1 cbr 1000 ------- 2 0.0 2.0 100 100
r 5.508 0 1 cbr 1000 ------- 2 0.0 2.0 99 99
+ 5.508 1 2 cbr 1000 ------- 2 0.0 2.0 99 99
d 5.508 1 2 cbr 1000 ------- 2 0.0 2.0 99 99
- 5.518 1 2 cbr 1000 ------- 2 0.0 2.0 85 85
r 5.523 1 2 cbr 1000 ------- 2 0.0 2.0 84 84
+ 5.55 0 1 cbr 1000 ------- 2 0.0 2.0 101 101
- 5.55 0 1 cbr 1000 ------- 2 0.0 2.0 101 101
r 5.558 0 1 cbr 1000 ------- 2 0.0 2.0 100 100
+ 5.558 1 2 cbr 1000 ------- 2 0.0 2.0 100 100
- 5.598 1 2 cbr 1000 ------- 2 0.0 2.0 87 87
+ 5.6 0 1 cbr 1000 ------- 2 0.0 2.0 102 102
- 5.6 0 1 cbr 1000 ------- 2 0.0 2.0 102 102
r 5.603 1 2 cbr 1000 ------- 2 0.0 2.0 85 85
r 5.608 0 1 cbr 1000 ------- 2 0.0 2.0 101 101
+ 5.608 1 2 cbr 1000 ------- 2 0.0 2.0 101 101
+ 5.65 0 1 cbr 1000 ------- 2 0.0 2.0 103 103
- 5.65 0 1 cbr 1000 ------- 2 0.0 2.0 103 103
r 5.658 0 1 cbr 1000 ------- 2 0.0 2.0 102 102
+ 5.658 1 2 cbr 1000 ------- 2 0.0 2.0 102 102
d 5.658 1 2 cbr 1000 ------- 2 0.0 2.0 102 102
- 5.678 1 2 cbr 1000 ------- 2 0.0 2.0 89 89
r 5.683 1 2 cbr 1000 ------- 2 0.0 2.0 87 87
+ 5.7 0 1 cbr 1000 ------- 2 0.0 2.0 104 104
- 5.7 0 1 cbr 1000 ------- 2 0.0 2.0 104 104
r 5.708 0 1 cbr 1000 ------- 2 0.0 2.0 103 103
+ 5.708 1 2 cbr 1000 ------- 2 0.0 2.0 103 103
+ 5.75 0 1 cbr 1000 ------- 2 0.0 2.0 105 105
- 5.75 0 1 cbr 1000 ------- 2 0.0 2.0 105 105
r 5.758 0 1 cbr 1000 ------- 2 0.0 2.0 104 104
+ 5.758 1 2 cbr 1000 ------- 2 0.0 2.0 104 104
d 5.758 1 2 cbr 1000 ------- 2 0.0 2.0 104 104
- 5.758 1 2 cbr 1000 ------- 2 0.0 2.0 90 90
r 5.763 1 2 cbr 1000 ------- 2 0.0 2.0 89 89
+ 5.8 0 1 cbr 1000 ------- 2 0.0 2.0 106 106
- 5.8 0 1 cbr 1000 ------- 2 0.0 2.0 106 106
r 5.808 0 1 cbr 1000 ------- 2 0.0 2.0 105 105
+ 5.808 1 2 cbr 1000 ------- 2 0.0 2.0 105 105
- 5.838 1 2 cbr 1000 ------- 2 0.0 2.0 92 92
r 5.843 1 2 cbr 1000 ------- 2 0.0 2.0 90 90
+ 5.85 0 1 cbr 1000 ------- 2 0.0 2.0 107 107
- 5.85 0 1 cbr 1000 ------- 2 0.0 2.0 107 107
r 5.858 0 1 cbr 1000 ------- 2 0.0 2.0 106 106
+ 5.858 1 2 cbr 1000 ------- 2 0.0 2.0 106 106
+ 5.9 0 1 cbr 1000 ------- 2 0.0 2.0 108 108
- 5.9 0 1 cbr 1000 ------- 2 0.0 2.0 108 108
r 5.908 0 1 cbr 1000 ------- 2 0.0 2.0 107 107
+ 5.908 1 2 cbr 1000 ------- 2 0.0 2.0 107 107
d 5.908 1 2 cbr 1000 ------- 2 0.0 2.0 107 107
- 5.918 1 2 cbr 1000 ------- 2 0.0 2.0 93 93
r 5.923 1 2 cbr 1000 ------- 2 0.0 2.0 92 92
+ 5.95 0 1 cbr 1000 ------- 2 0.0 2.0 109 109
- 5.95 0 1 cbr 1000 ------- 2 0.0 2.0 109 109
r 5.958 0 1 cbr 1000 ------- 2 0.0 2.0 108 108
+ 5.958 1 2 cbr 1000 ------- 2 0.0 2.0 108 108
- 5.998 1 2 cbr 1000 ------- 2 0.0 2.0 95 95
+ 6 0 1 cbr 1000 ------- 2 0.0 2.0 110 110
- 6 0 1 cbr 1000 ------- 2 0.0 2.0 110 110
r 6.003 1 2 cbr 1000 ------- 2 0.0 2.0 93 93
r 6.008 0 1 cbr 1000 ------- 2 0.0 2.0 109 109
+ 6.008 1 2 cbr 1000 ------- 2 0.0 2.0 109 109
+ 6.05 0 1 cbr 1000 ------- 2 0.0 2.0 111 111
- 6.05 0 1 cbr 1000 ------- 2 0.0 2.0 111 111
r 6.058 0 1 cbr 1000 ------- 2 0.0 2.0 110 110
+ 6.058 1 2 cbr 1000 ------- 2 0.0 2.0 110 110
d 6.058 1 2 cbr 1000 ------- 2 0.0 2.0 110 110
- 6.078 1 2 cbr 1000 ------- 2 0.0 2.0 97 97
r 6.083 1 2 cbr 1000 ------- 2 0.0 2.0 95 95
+ 6.1 0 1 cbr 1000 ------- 2 0.0 2.0 112 112
- 6.1 0 1 cbr 1000 ------- 2 0.0 2.0 112 112
r 6.108 0 1 cbr 1000 ------- 2 0.0 2.0 111 111
+ 6.108 1 2 cbr 1000 ------- 2 0.0 2.0 111 111
+ 6.15 0 1 cbr 1000 ------- 2 0.0 2.0 113 113
- 6.15 0 1 cbr 1000 ------- 2 0.0 2.0 113 113
r 6.158 0 1 cbr 1000 ------- 2 0.0 2.0 112 112
+ 6.158 1 2 cbr 1000 ------- 2 0.0 2.0 112 112
d 6.158 1 2 cbr 1000 ------- 2 0.0 2.0 112 112
- 6.158 1 2 cbr 1000 ------- 2 0.0 2.0 98 98
r 6.163 1 2 cbr 1000 ------- 2 0.0 2.0 97 97
+ 6.2 0 1 cbr 1000 ------- 2 0.0 2.0 114 114
- 6.2 0 1 cbr 1000 ------- 2 0.0 2.0 114 114
r 6.208 0 1 cbr 1000 ------- 2 0.0 2.0 113 113
+ 6.208 1 2 cbr 1000 ------- 2 0.0 2.0 113 113
- 6.238 1 2 cbr 1000 ------- 2 0.0 2.0 100 100
r 6.243 1 2 cbr 1000 ------- 2 0.0 2.0 98 98
+ 6.25 0 1 cbr 1000 ------- 2 0.0 2.0 115 115
- 6.25 0 1 cbr 1000 ------- 2 0.0 2.0 115 115
r 6.258 0 1 cbr 1000 ------- 2 0.0 2.0 114 114
+ 6.258 1 2 cbr 1000 ------- 2 0.0 2.0 114 114
+ 6.3 0 1 cbr 1000 ------- 2 0.0 2.0 116 116
- 6.3 0 1 cbr 1000 ------- 2 0.0 2.0 116 116
r 6.308 0 1 cbr 1000 ------- 2 0.0 2.0 115 115
+ 6.308 1 2 cbr 1000 ------- 2 0.0 2.0 115 115
d 6.308 1 2 cbr 1000 ------- 2 0.0 2.0 115 115
- 6.318 1 2 cbr 1000 ------- 2 0.0 2.0 101 101
r 6.323 1 2 cbr 1000 ------- 2 0.0 2.0 100 100
+ 6.35 0 1 cbr 1000 ------- 2 0.0 2.0 117 117
- 6.35 0 1 cbr 1000 ------- 2 0.0 2.0 117 117
r 6.358 0 1 cbr 1000 ------- 2 0.0 2.0 116 116
+ 6.358 1 2 cbr 1000 ------- 2 0.0 2.0 116 116
- 6.398 1 2 cbr 1000 ------- 2 0.0 2.0 103 103
+ 6.4 0 1 cbr 1000 ------- 2 0.0 2.0 118 118
- 6.4 0 1 cbr 1000 ------- 2 0.0 2.0 118 118
r 6.403 1 2 cbr 1000 ------- 2 0.0 2.0 101 101
r 6.408 0 1 cbr 1000 ------- 2 0.0 2.0 117 117
+ 6.408 1 2 cbr 1000 ------- 2 0.0 2.0 117 117
+ 6.45 0 1 cbr 1000 ------- 2 0.0 2.0 119 119
- 6.45 0 1 cbr 1000 ------- 2 0.0 2.0 119 119
r 6.458 0 1 cbr 1000 ------- 2 0.0 2.0 118 118
+ 6.458 1 2 cbr 1000 ------- 2 0.0 2.0 118 118
d 6.458 1 2 cbr 1000 ------- 2 0.0 2.0 118 118
- 6.478 1 2 cbr 1000 ------- 2 0.0 2.0 105 105
r 6.483 1 2 cbr 1000 ------- 2 0.0 2.0 103 103
+ 6.5 0 1 cbr 1000 ------- 2 0.0 2.0 120 120
- 6.5 0 1 cbr 1000 ------- 2 0.0 2.0 120 120
r 6.508 0 1 cbr 1000 ------- 2 0.0 2.0 119 119
+ 6.508 1 2 cbr 1000 ------- 2 0.0 2.0 119 119
+ 6.55 0 1 cbr 1000 ------- 2 0.0 2.0 121 121
- 6.55 0 1 cbr 1000 ------- 2 0.0 2.0 121 121
r 6.558 0 1 cbr 1000 ------- 2 0.0 2.0 120 120
+ 6.558 1 2 cbr 1000 ------- 2 0.0 2.0 120 120
d 6.558 1 2 cbr 1000 ------- 2 0.0 2.0 120 120
- 6.558 1 2 cbr 1000 ------- 2 0.0 2.0 106 106