+ 0.5 0 1 cbr 1000 ------- 2 0.0 2.0 0 0
- 0.5 0 1 cbr 1000 ------- 2 0.0 2.0 0 0
r 0.558 0 1 cbr 1000 ------- 2 0.0 2.0 0 0
+ 0.558 1 2 cbr 1000 ------- 2 0.0 2.0 0 0
- 0.558 1 2 cbr 1000 ------- 2 0.0 2.0 0 0
+ 0.566667 0 1 cbr 1000 ------- 2 0.0 2.0 1 1
- 0.566667 0 1 cbr 1000 ------- 2 0.0 2.0 1 1
r 0.624667 0 1 cbr 1000 ------- 2 0.0 2.0 1 1
+ 0.624667 1 2 cbr 1000 ------- 2 0.0 2.0 1 1
+ 0.633333 0 1 cbr 1000 ------- 2 0.0 2.0 2 2
- 0.633333 0 1 cbr 1000 ------- 2 0.0 2.0 2 2
- 0.638 1 2 cbr 1000 ------- 2 0.0 2.0 1 1
r 0.643 1 2 cbr 1000 ------- 2 0.0 2.0 0 0
r 0.691333 0 1 cbr 1000 ------- 2 0.0 2.0 2 2
+ 0.691333 1 2 cbr 1000 ------- 2 0.0 2.0 2 2
+ 0.7 0 1 cbr 1000 ------- 2 0.0 2.0 3 3
- 0.7 0 1 cbr 1000 ------- 2 0.0 2.0 3 3
- 0.718 1 2 cbr 1000 ------- 2 0.0 2.0 2 2
r 0.723 1 2 cbr 1000 ------- 2 0.0 2.0 1 1
r 0.758 0 1 cbr 1000 ------- 2 0.0 2.0 3 3
+ 0.758 1 2 cbr 1000 ------- 2 0.0 2.0 3 3
+ 0.766667 0 1 cbr 1000 ------- 2 0.0 2.0 4 4
- 0.766667 0 1 cbr 1000 ------- 2 0.0 2.0 4 4
- 0.798 1 2 cbr 1000 ------- 2 0.0 2.0 3 3
r 0.803 1 2 cbr 1000 ------- 2 0.0 2.0 2 2
r 0.824667 0 1 cbr 1000 ------- 2 0.0 2.0 4 4
+ 0.824667 1 2 cbr 1000 ------- 2 0.0 2.0 4 4
+ 0.833333 0 1 cbr 1000 ------- 2 0.0 2.0 5 5
- 0.833333 0 1 cbr 1000 ------- 2 0.0 2.0 5 5
- 0.878 1 2 cbr 1000 ------- 2 0.0 2.0 4 4
r 0.883 1 2 cbr 1000 ------- 2 0.0 2.0 3 3
r 0.891333 0 1 cbr 1000 ------- 2 0.0 2.0 5 5
+ 0.891333 1 2 cbr 1000 ------- 2 0.0 2.0 5 5
+ 0.9 0 1 cbr 1000 ------- 2 0.0 2.0 6 6
- 0.9 0 1 cbr 1000 ------- 2 0.0 2.0 6 6
- 0.958 1 2 cbr 1000 ------- 2 0.0 2.0 5 5
r 0.958 0 1 cbr 1000 ------- 2 0.0 2.0 6 6
+ 0.958 1 2 cbr 1000 ------- 2 0.0 2.0 6 6
r 0.963 1 2 cbr 1000 ------- 2 0.0 2.0 4 4
+ 0.966667 0 1 cbr 1000 ------- 2 0.0 2.0 7 7
- 0.966667 0 1 cbr 1000 ------- 2 0.0 2.0 7 7
r 1.024667 0 1 cbr 1000 ------- 2 0.0 2.0 7 7
+ 1.024667 1 2 cbr 1000 ------- 2 0.0 2.0 7 7
+ 1.033333 0 1 cbr 1000 ------- 2 0.0 2.0 8 8
- 1.033333 0 1 cbr 1000 ------- 2 0.0 2.0 8 8
- 1.038 1 2 cbr 1000 ------- 2 0.0 2.0 6 6
r 1.043 1 2 cbr 1000 ------- 2 0.0 2.0 5 5
r 1.091333 0 1 cbr 1000 ------- 2 0.0 2.0 8 8
+ 1.091333 1 2 cbr 1000 ------- 2 0.0 2.0 8 8
+ 1.1 0 1 cbr 1000 ------- 2 0.0 2.0 9 9
- 1.1 0 1 cbr 1000 ------- 2 0.0 2.0 9 9
- 1.118 1 2 cbr 1000 ------- 2 0.0 2.0 7 7
r 1.123 1 2 cbr 1000 ------- 2 0.0 2.0 6 6
r 1.158 0 1 cbr 1000 ------- 2 0.0 2.0 9 9
+ 1.158 1 2 cbr 1000 ------- 2 0.0 2.0 9 9
+ 1.166667 0 1 cbr 1000 ------- 2 0.0 2.0 10 10
- 1.166667 0 1 cbr 1000 ------- 2 0.0 2.0 10 10
- 1.198 1 2 cbr 1000 ------- 2 0.0 2.0 8 8
r 1.203 1 2 cbr 1000 ------- 2 0.0 2.0 7 7
r 1.224667 0 1 cbr 1000 ------- 2 0.0 2.0 10 10
+ 1.224667 1 2 cbr 1000 ------- 2 0.0 2.0 10 10
+ 1.233333 0 1 cbr 1000 ------- 2 0.0 2.0 11 11
- 1.233333 0 1 cbr 1000 ------- 2 0.0 2.0 11 11
- 1.278 1 2 cbr 1000 ------- 2 0.0 2.0 9 9
r 1.283 1 2 cbr 1000 ------- 2 0.0 2.0 8 8
r 1.291333 0 1 cbr 1000 ------- 2 0.0 2.0 11 11
+ 1.291333 1 2 cbr 1000 ------- 2 0.0 2.0 11 11
+ 1.3 0 1 cbr 1000 ------- 2 0.0 2.0 12 12
- 1.3 0 1 cbr 1000 ------- 2 0.0 2.0 12 12
r 1.358 0 1 cbr 1000 ------- 2 0.0 2.0 12 12
+ 1.358 1 2 cbr 1000 ------- 2 0.0 2.0 12 12
- 1.358 1 2 cbr 1000 ------- 2 0.0 2.0 10 10
r 1.363 1 2 cbr 1000 ------- 2 0.0 2.0 9 9
+ 1.366667 0 1 cbr 1000 ------- 2 0.0 2.0 13 13
- 1.366667 0 1 cbr 1000 ------- 2 0.0 2.0 13 13
r 1.424667 0 1 cbr 1000 ------- 2 0.0 2.0 13 13
+ 1.424667 1 2 cbr 1000 ------- 2 0.0 2.0 13 13
+ 1.433333 0 1 cbr 1000 ------- 2 0.0 2.0 14 14
- 1.433333 0 1 cbr 1000 ------- 2 0.0 2.0 14 14
- 1.438 1 2 cbr 1000 ------- 2 0.0 2.0 11 11
r 1.443 1 2 cbr 1000 ------- 2 0.0 2.0 10 10
r 1.491333 0 1 cbr 1000 ------- 2 0.0 2.0 14 14
+ 1.491333 1 2 cbr 1000 ------- 2 0.0 2.0 14 14
+ 1.5 0 1 cbr 1000 ------- 2 0.0 2.0 15 15
- 1.5 0 1 cbr 1000 ------- 2 0.0 2.0 15 15
- 1.518 1 2 cbr 1000 ------- 2 0.0 2.0 12 12
r 1.523 1 2 cbr 1000 ------- 2 0.0 2.0 11 11
r 1.558 0 1 cbr 1000 ------- 2 0.0 2.0 15 15
+ 1.558 1 2 cbr 1000 ------- 2 0.0 2.0 15 15
+ 1.566667 0 1 cbr 1000 ------- 2 0.0 2.0 16 16
- 1.566667 0 1 cbr 1000 ------- 2 0.0 2.0 16 16
- 1.598 1 2 cbr 1000 ------- 2 0.0 2.0 13 13
r 1.603 1 2 cbr 1000 ------- 2 0.0 2.0 12 12
r 1.624667 0 1 cbr 1000 ------- 2 0.0 2.0 16 16
+ 1.624667 1 2 cbr 1000 ------- 2 0.0 2.0 16 16
+ 1.633333 0 1 cbr 1000 ------- 2 0.0 2.0 17 17
- 1.633333 0 1 cbr 1000 ------- 2 0.0 2.0 17 17
- 1.678 1 2 cbr 1000 ------- 2 0.0 2.0 14 14
r 1.683 1 2 cbr 1000 ------- 2 0.0 2.0 13 13
r 1.691333 0 1 cbr 1000 ------- 2 0.0 2.0 17 17
+ 1.691333 1 2 cbr 1000 ------- 2 0.0 2.0 17 17
+ 1.7 0 1 cbr 1000 ------- 2 0.0 2.0 18 18
- 1.7 0 1 cbr 1000 ------- 2 0.0 2.0 18 18
r 1.758 0 1 cbr 1000 ------- 2 0.0 2.0 18 18
+ 1.758 1 2 cbr 1000 ------- 2 0.0 2.0 18 18
- 1.758 1 2 cbr 1000 ------- 2 0.0 2.0 15 15
r 1.763 1 2 cbr 1000 ------- 2 0.0 2.0 14 14
+ 1.766667 0 1 cbr 1000 ------- 2 0.0 2.0 19 19
- 1.766667 0 1 cbr 1000 ------- 2 0.0 2.0 19 19
r 1.824667 0 1 cbr 1000 ------- 2 0.0 2.0 19 19
+ 1.824667 1 2 cbr 1000 ------- 2 0.0 2.0 19 19
+ 1.833333 0 1 cbr 1000 ------- 2 0.0 2.0 20 20
- 1.833333 0 1 cbr 1000 ------- 2 0.0 2.0 20 20
- 1.838 1 2 cbr 1000 ------- 2 0.0 2.0 16 16
r 1.843 1 2 cbr 1000 ------- 2 0.0 2.0 15 15
r 1.891333 0 1 cbr 1000 ------- 2 0.0 2.0 20 20
+ 1.891333 1 2 cbr 1000 ------- 2 0.0 2.0 20 20
+ 1.9 0 1 cbr 1000 ------- 2 0.0 2.0 21 21
- 1.9 0 1 cbr 1000 ------- 2 0.0 2.0 21 21
- 1.918 1 2 cbr 1000 ------- 2 0.0 2.0 17 17
r 1.923 1 2 cbr 1000 ------- 2 0.0 2.0 16 16
r 1.958 0 1 cbr 1000 ------- 2 0.0 2.0 21 21
+ 1.958 1 2 cbr 1000 ------- 2 0.0 2.0 21 21
+ 1.966667 0 1 cbr 1000 ------- 2 0.0 2.0 22 22
- 1.966667 0 1 cbr 1000 ------- 2 0.0 2.0 22 22
- 1.998 1 2 cbr 1000 ------- 2 0.0 2.0 18 18
r 2.003 1 2 cbr 1000 ------- 2 0.0 2.0 17 17
r 2.024667 0 1 cbr 1000 ------- 2 0.0 2.0 22 22
+ 2.024667 1 2 cbr 1000 ------- 2 0.0 2.0 22 22
+ 2.033333 0 1 cbr 1000 ------- 2 0.0 2.0 23 23
- 2.033333 0 1 cbr 1000 ------- 2 0.0 2.0 23 23
- 2.078 1 2 cbr 1000 ------- 2 0.0 2.0 19 19
r 2.083 1 2 cbr 1000 ------- 2 0.0 2.0 18 18
r 2.091333 0 1 cbr 1000 ------- 2 0.0 2.0 23 23
+ 2.091333 1 2 cbr 1000 ------- 2 0.0 2.0 23 23
+ 2.1 0 1 cbr 1000 ------- 2 0.0 2.0 24 24
- 2.1 0 1 cbr 1000 ------- 2 0.0 2.0 24 24
r 2.158 0 1 cbr 1000 ------- 2 0.0 2.0 24 24
+ 2.158 1 2 cbr 1000 ------- 2 0.0 2.0 24 24
- 2.158 1 2 cbr 1000 ------- 2 0.0 2.0 20 20
r 2.163 1 2 cbr 1000 ------- 2 0.0 2.0 19 19
+ 2.166667 0 1 cbr 1000 ------- 2 0.0 2.0 25 25
- 2.166667 0 1 cbr 1000 ------- 2 0.0 2.0 25 25
r 2.224667 0 1 cbr 1000 ------- 2 0.0 2.0 25 25
+ 2.224667 1 2 cbr 1000 ------- 2 0.0 2.0 25 25
+ 2.233333 0 1 cbr 1000 ------- 2 0.0 2.0 26 26
- 2.233333 0 1 cbr 1000 ------- 2 0.0 2.0 26 26
- 2.238 1 2 cbr 1000 ------- 2 0.0 2.0 21 21
r 2.243 1 2 cbr 1000 ------- 2 0.0 2.0 20 20
r 2.291333 0 1 cbr 1000 ------- 2 0.0 2.0 26 26
+ 2.291333 1 2 cbr 1000 ------- 2 0.0 2.0 26 26
+ 2.3 0 1 cbr 1000 ------- 2 0.0 2.0 27 27
- 2.3 0 1 cbr 1000 ------- 2 0.0 2.0 27 27
- 2.318 1 2 cbr 1000 ------- 2 0.0 2.0 22 22
r 2.323 1 2 cbr 1000 ------- 2 0.0 2.0 21 21
r 2.358 0 1 cbr 1000 ------- 2 0.0 2.0 27 27
+ 2.358 1 2 cbr 1000 ------- 2 0.0 2.0 27 27
+ 2.366667 0 1 cbr 1000 ------- 2 0.0 2.0 28 28
- 2.366667 0 1 cbr 1000 ------- 2 0.0 2.0 28 28
- 2.398 1 2 cbr 1000 ------- 2 0.0 2.0 23 23
r 2.403 1 2 cbr 1000 ------- 2 0.0 2.0 22 22
r 2.424667 0 1 cbr 1000 ------- 2 0.0 2.0 28 28
+ 2.424667 1 2 cbr 1000 ------- 2 0.0 2.0 28 28
+ 2.433333 0 1 cbr 1000 ------- 2 0.0 2.0 29 29
- 2.433333 0 1 cbr 1000 ------- 2 0.0 2.0 29 29
- 2.478 1 2 cbr 1000 ------- 2 0.0 2.0 24 24
r 2.483 1 2 cbr 1000 ------- 2 0.0 2.0 23 23
r 2.491333 0 1 cbr 1000 ------- 2 0.0 2.0 29 29
+ 2.491333 1 2 cbr 1000 ------- 2 0.0 2.0 29 29
+ 2.5 0 1 cbr 1000 ------- 2 0.0 2.0 30 30
- 2.5 0 1 cbr 1000 ------- 2 0.0 2.0 30 30
- 2.558 1 2 cbr 1000 ------- 2 0.0 2.0 25 25
r 2.558 0 1 cbr 1000 ------- 2 0.0 2.0 30 30
+ 2.558 1 2 cbr 1000 ------- 2 0.0 2.0 30 30
r 2.563 1 2 cbr 1000 ------- 2 0.0 2.0 24 24
+ 2.566667 0 1 cbr 1000 ------- 2 0.0 2.0 31 31
- 2.566667 0 1 cbr 1000 ------- 2 0.0 2.0 31 31
r 2.624667 0 1 cbr 1000 ------- 2 0.0 2.0 31 31
+ 2.624667 1 2 cbr 1000 ------- 2 0.0 2.0 31 31
+ 2.633333 0 1 cbr 1000 ------- 2 0.0 2.0 32 32
- 2.633333 0 1 cbr 1000 ------- 2 0.0 2.0 32 32
- 2.638 1 2 cbr 1000 ------- 2 0.0 2.0 26 26
r 2.643 1 2 cbr 1000 ------- 2 0.0 2.0 25 25
r 2.691333 0 1 cbr 1000 ------- 2 0.0 2.0 32 32
+ 2.691333 1 2 cbr 1000 ------- 2 0.0 2.0 32 32
+ 2.7 0 1 cbr 1000 ------- 2 0.0 2.0 33 33
- 2.7 0 1 cbr 1000 ------- 2 0.0 2.0 33 33
- 2.718 1 2 cbr 1000 ------- 2 0.0 2.0 27 27
r 2.723 1 2 cbr 1000 ------- 2 0.0 2.0 26 26
r 2.758 0 1 cbr 1000 ------- 2 0.0 2.0 33 33
+ 2.758 1 2 cbr 1000 ------- 2 0.0 2.0 33 33
+ 2.766667 0 1 cbr 1000 ------- 2 0.0 2.0 34 34
- 2.766667 0 1 cbr 1000 ------- 2 0.0 2.0 34 34
- 2.798 1 2 cbr 1000 ------- 2 0.0 2.0 28 28
r 2.803 1 2 cbr 1000 ------- 2 0.0 2.0 27 27
r 2.824667 0 1 cbr 1000 ------- 2 0.0 2.0 34 34
+ 2.824667 1 2 cbr 1000 ------- 2 0.0 2.0 34 34
+ 2.833333 0 1 cbr 1000 ------- 2 0.0 2.0 35 35
- 2.833333 0 1 cbr 1000 ------- 2 0.0 2.0 35 35
- 2.878 1 2 cbr 1000 ------- 2 0.0 2.0 29 29
r 2.883 1 2 cbr 1000 ------- 2 0.0 2.0 28 28
r 2.891333 0 1 cbr 1000 ------- 2 0.0 2.0 35 35
+ 2.891333 1 2 cbr 1000 ------- 2 0.0 2.0 35 35
+ 2.9 0 1 cbr 1000 ------- 2 0.0 2.0 36 36
- 2.9 0 1 cbr 1000 ------- 2 0.0 2.0 36 36
- 2.958 1 2 cbr 1000 ------- 2 0.0 2.0 30 30
r 2.958 0 1 cbr 1000 ------- 2 0.0 2.0 36 36
+ 2.958 1 2 cbr 1000 ------- 2 0.0 2.0 36 36
r 2.963 1 2 cbr 1000 ------- 2 0.0 2.0 29 29
+ 2.966667 0 1 cbr 1000 ------- 2 0.0 2.0 37 37
- 2.966667 0 1 cbr 1000 ------- 2 0.0 2.0 37 37
r 3.024667 0 1 cbr 1000 ------- 2 0.0 2.0 37 37
+ 3.024667 1 2 cbr 1000 ------- 2 0.0 2.0 37 37
+ 3.033333 0 1 cbr 1000 ------- 2 0.0 2.0 38 38
- 3.033333 0 1 cbr 1000 ------- 2 0.0 2.0 38 38
- 3.038 1 2 cbr 1000 ------- 2 0.0 2.0 31 31
r 3.043 1 2 cbr 1000 ------- 2 0.0 2.0 30 30
r 3.091333 0 1 cbr 1000 ------- 2 0.0 2.0 38 38
+ 3.091333 1 2 cbr 1000 ------- 2 0.0 2.0 38 38
+ 3.1 0 1 cbr 1000 ------- 2 0.0 2.0 39 39
- 3.1 0 1 cbr 1000 ------- 2 0.0 2.0 39 39
- 3.118 1 2 cbr 1000 ------- 2 0.0 2.0 32 32
r 3.123 1 2 cbr 1000 ------- 2 0.0 2.0 31 31
r 3.158 0 1 cbr 1000 ------- 2 0.0 2.0 39 39
+ 3.158 1 2 cbr 1000 ------- 2 0.0 2.0 39 39
+ 3.166667 0 1 cbr 1000 ------- 2 0.0 2.0 40 40
- 3.166667 0 1 cbr 1000 ------- 2 0.0 2.0 40 40
- 3.198 1 2 cbr 1000 ------- 2 0.0 2.0 33 33
r 3.203 1 2 cbr 1000 ------- 2 0.0 2.0 32 32
r 3.224667 0 1 cbr 1000 ------- 2 0.0 2.0 40 40
+ 3.224667 1 2 cbr 1000 ------- 2 0.0 2.0 40 40
+ 3.233333 0 1 cbr 1000 ------- 2 0.0 2.0 41 41
- 3.233333 0 1 cbr 1000 ------- 2 0.0 2.0 41 41
- 3.278 1 2 cbr 1000 ------- 2 0.0 2.0 34 34
r 3.283 1 2 cbr 1000 ------- 2 0.0 2.0 33 33
r 3.291333 0 1 cbr 1000 ------- 2 0.0 2.0 41 41
+ 3.291333 1 2 cbr 1000 ------- 2 0.0 2.0 41 41
+ 3.3 0 1 cbr 1000 ------- 2 0.0 2.0 42 42
- 3.3 0 1 cbr 1000 ------- 2 0.0 2.0 42 42
- 3.358 1 2 cbr 1000 ------- 2 0.0 2.0 35 35
r 3.358 0 1 cbr 1000 ------- 2 0.0 2.0 42 42
+ 3.358 1 2 cbr 1000 ------- 2 0.0 2.0 42 42
r 3.363 1 2 cbr 1000 ------- 2 0.0 2.0 34 34
+ 3.366667 0 1 cbr 1000 ------- 2 0.0 2.0 43 43
- 3.366667 0 1 cbr 1000 ------- 2 0.0 2.0 43 43
r 3.424667 0 1 cbr 1000 ------- 2 0.0 2.0 43 43
+ 3.424667 1 2 cbr 1000 ------- 2 0.0 2.0 43 43
+ 3.433333 0 1 cbr 1000 ------- 2 0.0 2.0 44 44
- 3.433333 0 1 cbr 1000 ------- 2 0.0 2.0 44 44
- 3.438 1 2 cbr 1000 ------- 2 0.0 2.0 36 36
r 3.443 1 2 cbr 1000 ------- 2 0.0 2.0 35 35
r 3.491333 0 1 cbr 1000 ------- 2 0.0 2.0 44 44
+ 3.491333 1 2 cbr 1000 ------- 2 0.0 2.0 44 44
+ 3.5 0 1 cbr 1000 ------- 2 0.0 2.0 45 45
- 3.5 0 1 cbr 1000 ------- 2 0.0 2.0 45 45
- 3.518 1 2 cbr 1000 ------- 2 0.0 2.0 37 37
r 3.523 1 2 cbr 1000 ------- 2 0.0 2.0 36 36
r 3.558 0 1 cbr 1000 ------- 2 0.0 2.0 45 45
+ 3.558 1 2 cbr 1000 ------- 2 0.0 2.0 45 45
+ 3.566667 0 1 cbr 1000 ------- 2 0.0 2.0 46 46
- 3.566667 0 1 cbr 1000 ------- 2 0.0 2.0 46 46
- 3.598 1 2 cbr 1000 ------- 2 0.0 2.0 38 38
r 3.603 1 2 cbr 1000 ------- 2 0.0 2.0 37 37
r 3.624667 0 1 cbr 1000 ------- 2 0.0 2.0 46 46
+ 3.624667 1 2 cbr 1000 ------- 2 0.0 2.0 46 46
+ 3.633333 0 1 cbr 1000 ------- 2 0.0 2.0 47 47
- 3.633333 0 1 cbr 1000 ------- 2 0.0 2.0 47 47
- 3.678 1 2 cbr 1000 ------- 2 0.0 2.0 39 39
r 3.683 1 2 cbr 1000 ------- 2 0.0 2.0 38 38
r 3.691333 0 1 cbr 1000 ------- 2 0.0 2.0 47 47
+ 3.691333 1 2 cbr 1000 ------- 2 0.0 2.0 47 47
+ 3.7 0 1 cbr 1000 ------- 2 0.0 2.0 48 48
- 3.7 0 1 cbr 1000 ------- 2 0.0 2.0 48 48
- 3.758 1 2 cbr 1000 ------- 2 0.0 2.0 40 40
r 3.758 0 1 cbr 1000 ------- 2 0.0 2.0 48 48
+ 3.758 1 2 cbr 1000 ------- 2 0.0 2.0 48 48
r 3.763 1 2 cbr 1000 ------- 2 0.0 2.0 39 39
+ 3.766667 0 1 cbr 1000 ------- 2 0.0 2.0 49 49
- 3.766667 0 1 cbr 1000 ------- 2 0.0 2.0 49 49
r 3.824667 0 1 cbr 1000 ------- 2 0.0 2.0 49 49
+ 3.824667 1 2 cbr 1000 ------- 2 0.0 2.0 49 49
+ 3.833333 0 1 cbr 1000 ------- 2 0.0 2.0 50 50
- 3.833333 0 1 cbr 1000 ------- 2 0.0 2.0 50 50
- 3.838 1 2 cbr 1000 ------- 2 0.0 2.0 41 41
r 3.843 1 2 cbr 1000 ------- 2 0.0 2.0 40 40
r 3.891333 0 1 cbr 1000 ------- 2 0.0 2.0 50 50
+ 3.891333 1 2 cbr 1000 ------- 2 0.0 2.0 50 50
+ 3.9 0 1 cbr 1000 ------- 2 0.0 2.0 51 51
- 3.9 0 1 cbr 1000 ------- 2 0.0 2.0 51 51
- 3.918 1 2 cbr 1000 ------- 2 0.0 2.0 42 42
r 3.923 1 2 cbr 1000 ------- 2 0.0 2.0 41 41
r 3.958 0 1 cbr 1000 ------- 2 0.0 2.0 51 51
+ 3.958 1 2 cbr 1000 ------- 2 0.0 2.0 51 51
+ 3.966667 0 1 cbr 1000 ------- 2 0.0 2.0 52 52
- 3.966667 0 1 cbr 1000 ------- 2 0.0 2.0 52 52
- 3.998 1 2 cbr 1000 ------- 2 0.0 2.0 43 43
r 4.003 1 2 cbr 1000 ------- 2 0.0 2.0 42 42
r 4.024667 0 1 cbr 1000 ------- 2 0.0 2.0 52 52
+ 4.024667 1 2 cbr 1000 ------- 2 0.0 2.0 52 52
+ 4.033333 0 1 cbr 1000 ------- 2 0.0 2.0 53 53
- 4.033333 0 1 cbr 1000 ------- 2 0.0 2.0 53 53
- 4.078 1 2 cbr 1000 ------- 2 0.0 2.0 44 44
r 4.083 1 2 cbr 1000 ------- 2 0.0 2.0 43 43
r 4.091333 0 1 cbr 1000 ------- 2 0.0 2.0 53 53
+ 4.091333 1 2 cbr 1000 ------- 2 0.0 2.0 53 53
+ 4.1 0 1 cbr 1000 ------- 2 0.0 2.0 54 54
- 4.1 0 1 cbr 1000 ------- 2 0.0 2.0 54 54
- 4.158 1 2 cbr 1000 ------- 2 0.0 2.0 45 45
r 4.158 0 1 cbr 1000 ------- 2 0.0 2.0 54 54
+ 4.158 1 2 cbr 1000 ------- 2 0.0 2.0 54 54
r 4.163 1 2 cbr 1000 ------- 2 0.0 2.0 44 44
+ 4.166667 0 1 cbr 1000 ------- 2 0.0 2.0 55 55
- 4.166667 0 1 cbr 1000 ------- 2 0.0 2.0 55 55
r 4.224667 0 1 cbr 1000 ------- 2 0.0 2.0 55 55
+ 4.224667 1 2 cbr 1000 ------- 2 0.0 2.0 55 55
d 4.224667 1 2 cbr 1000 ------- 2 0.0 2.0 55 55
+ 4.233333 0 1 cbr 1000 ------- 2 0.0 2.0 56 56
- 4.233333 0 1 cbr 1000 ------- 2 0.0 2.0 56 56
- 4.238 1 2 cbr 1000 ------- 2 0.0 2.0 46 46
r 4.243 1 2 cbr 1000 ------- 2 0.0 2.0 45 45
r 4.291333 0 1 cbr 1000 ------- 2 0.0 2.0 56 56
+ 4.291333 1 2 cbr 1000 ------- 2 0.0 2.0 56 56
+ 4.3 0 1 cbr 1000 ------- 2 0.0 2.0 57 57
- 4.3 0 1 cbr 1000 ------- 2 0.0 2.0 57 57
- 4.318 1 2 cbr 1000 ------- 2 0.0 2.0 47 47
r 4.323 1 2 cbr 1000 ------- 2 0.0 2.0 46 46
r 4.358 0 1 cbr 1000 ------- 2 0.0 2.0 57 57
+ 4.358 1 2 cbr 1000 ------- 2 0.0 2.0 57 57
+ 4.366667 0 1 cbr 1000 ------- 2 0.0 2.0 58 58
- 4.366667 0 1 cbr 1000 ------- 2 0.0 2.0 58 58
- 4.398 1 2 cbr 1000 ------- 2 0.0 2.0 48 48
r 4.403 1 2 cbr 1000 ------- 2 0.0 2.0 47 47
r 4.424667 0 1 cbr 1000 ------- 2 0.0 2.0 58 58
+ 4.424667 1 2 cbr 1000 ------- 2 0.0 2.0 58 58
+ 4.433333 0 1 cbr 1000 ------- 2 0.0 2.0 59 59
- 4.433333 0 1 cbr 1000 ------- 2 0.0 2.0 59 59
- 4.478 1 2 cbr 1000 ------- 2 0.0 2.0 49 49
r 4.483 1 2 cbr 1000 ------- 2 0.0 2.0 48 48
r 4.491333 0 1 cbr 1000 ------- 2 0.0 2.0 59 59
+ 4.491333 1 2 cbr 1000 ------- 2 0.0 2.0 59 59
+ 4.5 0 1 cbr 1000 ------- 2 0.0 2.0 60 60
- 4.5 0 1 cbr 1000 ------- 2 0.0 2.0 60 60
- 4.558 1 2 cbr 1000 ------- 2 0.0 2.0 50 50
r 4.558 0 1 cbr 1000 ------- 2 0.0 2.0 60 60
+ 4.558 1 2 cbr 1000 ------- 2 0.0 2.0 60 60
r 4.563 1 2 cbr 1000 ------- 2 0.0 2.0 49 49
+ 4.566667 0 1 cbr 1000 ------- 2 0.0 2.0 61 61
- 4.566667 0 1 cbr 1000 ------- 2 0.0 2.0 61 61
r 4.624667 0 1 cbr 1000 ------- 2 0.0 2.0 61 61
+ 4.624667 1 2 cbr 1000 ------- 2 0.0 2.0 61 61
d 4.624667 1 2 cbr 1000 ------- 2 0.0 2.0 61 61
+ 4.633333 0 1 cbr 1000 ------- 2 0.0 2.0 62 62
- 4.633333 0 1 cbr 1000 ------- 2 0.0 2.0 62 62
- 4.638 1 2 cbr 1000 ------- 2 0.0 2.0 51 51
r 4.643 1 2 cbr 1000 ------- 2 0.0 2.0 50 50
r 4.691333 0 1 cbr 1000 ------- 2 0.0 2.0 62 62
+ 4.691333 1 2 cbr 1000 ------- 2 0.0 2.0 62 62
+ 4.7 0 1 cbr 1000 ------- 2 0.0 2.0 63 63
- 4.7 0 1 cbr 1000 ------- 2 0.0 2.0 63 63
- 4.718 1 2 cbr 1000 ------- 2 0.0 2.0 52 52
r 4.723 1 2 cbr 1000 ------- 2 0.0 2.0 51 51
r 4.758 0 1 cbr 1000 ------- 2 0.0 2.0 63 63
+ 4.758 1 2 cbr 1000 ------- 2 0.0 2.0 63 63
+ 4.766667 0 1 cbr 1000 ------- 2 0.0 2.0 64 64
- 4.766667 0 1 cbr 1000 ------- 2 0.0 2.0 64 64
- 4.798 1 2 cbr 1000 ------- 2 0.0 2.0 53 53
r 4.803 1 2 cbr 1000 ------- 2 0.0 2.0 52 52
r 4.824667 0 1 cbr 1000 ------- 2 0.0 2.0 64 64
+ 4.824667 1 2 cbr 1000 ------- 2 0.0 2.0 64 64
+ 4.833333 0 1 cbr 1000 ------- 2 0.0 2.0 65 65
- 4.833333 0 1 cbr 1000 ------- 2 0.0 2.0 65 65
- 4.878 1 2 cbr 1000 ------- 2 0.0 2.0 54 54
r 4.883 1 2 cbr 1000 ------- 2 0.0 2.0 53 53
r 4.891333 0 1 cbr 1000 ------- 2 0.0 2.0 65 65
+ 4.891333 1 2 cbr 1000 ------- 2 0.0 2.0 65 65
+ 4.9 0 1 cbr 1000 ------- 2 0.0 2.0 66 66
- 4.9 0 1 cbr 1000 ------- 2 0.0 2.0 66 66
- 4.958 1 2 cbr 1000 ------- 2 0.0 2.0 56 56
r 4.958 0 1 cbr 1000 ------- 2 0.0 2.0 66 66
+ 4.958 1 2 cbr 1000 ------- 2 0.0 2.0 66 66
r 4.963 1 2 cbr 1000 ------- 2 0.0 2.0 54 54
+ 4.966667 0 1 cbr 1000 ------- 2 0.0 2.0 67 67
- 4.966667 0 1 cbr 1000 ------- 2 0.0 2.0 67 67
r 5.024667 0 1 cbr 1000 ------- 2 0.0 2.0 67 67
+ 5.024667 1 2 cbr 1000 ------- 2 0.0 2.0 67 67
d 5.024667 1 2 cbr 1000 ------- 2 0.0 2.0 67 67
+ 5.033333 0 1 cbr 1000 ------- 2 0.0 2.0 68 68
- 5.033333 0 1 cbr 1000 ------- 2 0.0 2.0 68 68
- 5.038 1 2 cbr 1000 ------- 2 0.0 2.0 57 57
r 5.043 1 2 cbr 1000 ------- 2 0.0 2.0 56 56
r 5.091333 0 1 cbr 1000 ------- 2 0.0 2.0 68 68
+ 5.091333 1 2 cbr 1000 ------- 2 0.0 2.0 68 68
+ 5.1 0 1 cbr 1000 ------- 2 0.0 2.0 69 69
- 5.1 0 1 cbr 1000 ------- 2 0.0 2.0 69 69
- 5.118 1 2 cbr 1000 ------- 2 0.0 2.0 58 58
r 5.123 1 2 cbr 1000 ------- 2 0.0 2.0 57 57
r 5.158 0 1 cbr 1000 ------- 2 0.0 2.0 69 69
+ 5.158 1 2 cbr 1000 ------- 2 0.0 2.0 69 69
+ 5.166667 0 1 cbr 1000 ------- 2 0.0 2.0 70 70
- 5.166667 0 1 cbr 1000 ------- 2 0.0 2.0 70 70
- 5.198 1 2 cbr 1000 ------- 2 0.0 2.0 59 59
r 5.203 1 2 cbr 1000 ------- 2 0.0 2.0 58 58
r 5.224667 0 1 cbr 1000 ------- 2 0.0 2.0 70 70
+ 5.224667 1 2 cbr 1000 ------- 2 0.0 2.0 70 70
+ 5.233333 0 1 cbr 1000 ------- 2 0.0 2.0 71 71
- 5.233333 0 1 cbr 1000 ------- 2 0.0 2.0 71 71
- 5.278 1 2 cbr 1000 ------- 2 0.0 2.0 60 60
r 5.283 1 2 cbr 1000 ------- 2 0.0 2.0 59 59
r 5.291333 0 1 cbr 1000 ------- 2 0.0 2.0 71 71
+ 5.291333 1 2 cbr 1000 ------- 2 0.0 2.0 71 71
+ 5.3 0 1 cbr 1000 ------- 2 0.0 2.0 72 72
- 5.3 0 1 cbr 1000 ------- 2 0.0 2.0 72 72
r 5.358 0 1 cbr 1000 ------- 2 0.0 2.0 72 72
+ 5.358 1 2 cbr 1000 ------- 2 0.0 2.0 72 72
d 5.358 1 2 cbr 1000 ------- 2 0.0 2.0 72 72
- 5.358 1 2 cbr 1000 ------- 2 0.0 2.0 62 62
r 5.363 1 2 cbr 1000 ------- 2 0.0 2.0 60 60
+ 5.366667 0 1 cbr 1000 ------- 2 0.0 2.0 73 73
- 5.366667 0 1 cbr 1000 ------- 2 0.0 2.0 73 73
r 5.424667 0 1 cbr 1000 ------- 2 0.0 2.0 73 73
+ 5.424667 1 2 cbr 1000 ------- 2 0.0 2.0 73 73
+ 5.433333 0 1 cbr 1000 ------- 2 0.0 2.0 74 74
- 5.433333 0 1 cbr 1000 ------- 2 0.0 2.0 74 74
- 5.438 1 2 cbr 1000 ------- 2 0.0 2.0 63 63
r 5.443 1 2 cbr 1000 ------- 2 0.0 2.0 62 62
r 5.491333 0 1 cbr 1000 ------- 2 0.0 2.0 74 74
+ 5.491333 1 2 cbr 1000 ------- 2 0.0 2.0 74 74
+ 5.5 0 1 cbr 1000 ------- 2 0.0 2.0 75 75
- 5.5 0 1 cbr 1000 ------- 2 0.0 2.0 75 75
- 5.518 1 2 cbr 1000 ------- 2 0.0 2.0 64 64
r 5.523 1 2 cbr 1000 ------- 2 0.0 2.0 63 63
r 5.558 0 1 cbr 1000 ------- 2 0.0 2.0 75 75
+ 5.558 1 2 cbr 1000 ------- 2 0.0 2.0 75 75
+ 5.566667 0 1 cbr 1000 ------- 2 0.0 2.0 76 76
- 5.566667 0 1 cbr 1000 ------- 2 0.0 2.0 76 76
- 5.598 1 2 cbr 1000 ------- 2 0.0 2.0 65 65
r 5.603 1 2 cbr 1000 ------- 2 0.0 2.0 64 64
r 5.624667 0 1 cbr 1000 ------- 2 0.0 2.0 76 76
+ 5.624667 1 2 cbr 1000 ------- 2 0.0 2.0 76 76
+ 5.633333 0 1 cbr 1000 ------- 2 0.0 2.0 77 77
- 5.633333 0 1 cbr 1000 ------- 2 0.0 2.0 77 77
- 5.678 1 2 cbr 1000 ------- 2 0.0 2.0 66 66
r 5.683 1 2 cbr 1000 ------- 2 0.0 2.0 65 65
r 5.691333 0 1 cbr 1000 ------- 2 0.0 2.0 77 77
+ 5.691333 1 2 cbr 1000 ------- 2 0.0 2.0 77 77
+ 5.7 0 1 cbr 1000 ------- 2 0.0 2.0 78 78
- 5.7 0 1 cbr 1000 ------- 2 0.0 2.0 78 78
r 5.758 0 1 cbr 1000 ------- 2 0.0 2.0 78 78
+ 5.758 1 2 cbr 1000 ------- 2 0.0 2.0 78 78
d 5.758 1 2 cbr 1000 ------- 2 0.0 2.0 78 78
- 5.758 1 2 cbr 1000 ------- 2 0.0 2.0 68 68
r 5.763 1 2 cbr 1000 ------- 2 0.0 2.0 66 66
+ 5.766667 0 1 cbr 1000 ------- 2 0.0 2.0 79 79
- 5.766667 0 1 cbr 1000 ------- 2 0.0 2.0 79 79
r 5.824667 0 1 cbr 1000 ------- 2 0.0 2.0 79 79
+ 5.824667 1 2 cbr 1000 ------- 2 0.0 2.0 79 79
+ 5.833333 0 1 cbr 1000 ------- 2 0.0 2.0 80 80
- 5.833333 0 1 cbr 1000 ------- 2 0.0 2.0 80 80
- 5.838 1 2 cbr 1000 ------- 2 0.0 2.0 69 69
r 5.843 1 2 cbr 1000 ------- 2 0.0 2.0 68 68
r 5.891333 0 1 cbr 1000 ------- 2 0.0 2.0 80 80
+ 5.891333 1 2 cbr 1000 ------- 2 0.0 2.0 80 80
+ 5.9 0 1 cbr 1000 ------- 2 0.0 2.0 81 81
- 5.9 0 1 cbr 1000 ------- 2 0.0 2.0 81 81
- 5.918 1 2 cbr 1000 ------- 2 0.0 2.0 70 70
r 5.923 1 2 cbr 1000 ------- 2 0.0 2.0 69 69
r 5.958 0 1 cbr 1000 ------- 2 0.0 2.0 81 81
+ 5.958 1 2 cbr 1000 ------- 2 0.0 2.0 81 81
+ 5.966667 0 1 cbr 1000 ------- 2 0.0 2.0 82 82
- 5.966667 0 1 cbr 1000 ------- 2 0.0 2.0 82 82
- 5.998 1 2 cbr 1000 ------- 2 0.0 2.0 71 71
r 6.003 1 2 cbr 1000 ------- 2 0.0 2.0 70 70
r 6.024667 0 1 cbr 1000 ------- 2 0.0 2.0 82 82
+ 6.024667 1 2 cbr 1000 ------- 2 0.0 2.0 82 82
+ 6.033333 0 1 cbr 1000 ------- 2 0.0 2.0 83 83
- 6.033333 0 1 cbr 1000 ------- 2 0.0 2.0 83 83
- 6.078 1 2 cbr 1000 ------- 2 0.0 2.0 73 73
r 6.083 1 2 cbr 1000 ------- 2 0.0 2.0 71 71
r 6.091333 0 1 cbr 1000 ------- 2 0.0 2.0 83 83
+ 6.091333 1 2 cbr 1000 ------- 2 0.0 2.0 83 83
+ 6.1 0 1 cbr 1000 ------- 2 0.0 2.0 84 84
- 6.1 0 1 cbr 1000 ------- 2 0.0 2.0 84 84
r 6.158 0 1 cbr 1000 ------- 2 0.0 2.0 84 84
+ 6.158 1 2 cbr 1000 ------- 2 0.0 2.0 84 84
d 6.158 1 2 cbr 1000 ------- 2 0.0 2.0 84 84
- 6.158 1 2 cbr 1000 ------- 2 0.0 2.0 74 74
r 6.163 1 2 cbr 1000 ------- 2 0.0 2.0 73 73
+ 6.166667 0 1 cbr 1000 ------- 2 0.0 2.0 85 85
- 6.166667 0 1 cbr 1000 ------- 2 0.0 2.0 85 85
r 6.224667 0 1 cbr 1000 ------- 2 0.0 2.0 85 85
+ 6.224667 1 2 cbr 1000 ------- 2 0.0 2.0 85 85
+ 6.233333 0 1 cbr 1000 ------- 2 0.0 2.0 86 86
- 6.233333 0 1 cbr 1000 ------- 2 0.0 2.0 86 86
- 6.238 1 2 cbr 1000 ------- 2 0.0 2.0 75 75
r 6.243 1 2 cbr 1000 ------- 2 0.0 2.0 74 74
r 6.291333 0 1 cbr 1000 ------- 2 0.0 2.0 86 86
+ 6.291333 1 2 cbr 1000 ------- 2 0.0 2.0 86 86
+ 6.3 0 1 cbr 1000 ------- 2 0.0 2.0 87 87
- 6.3 0 1 cbr 1000 ------- 2 0.0 2.0 87 87
- 6.318 1 2 cbr 1000 ------- 2 0.0 2.0 76 76
r 6.323 1 2 cbr 1000 ------- 2 0.0 2.0 75 75
r 6.358 0 1 cbr 1000 ------- 2 0.0 2.0 87 87
+ 6.358 1 2 cbr 1000 ------- 2 0.0 2.0 87 87
+ 6.366667 0 1 cbr 1000 ------- 2 0.0 2.0 88 88
- 6.366667 0 1 cbr 1000 ------- 2 0.0 2.0 88 88
- 6.398 1 2 cbr 1000 ------- 2 0.0 2.0 77 77
r 6.403 1 2 cbr 1000 ------- 2 0.0 2.0 76 76
r 6.424667 0 1 cbr 1000 ------- 2 0.0 2.0 88 88
+ 6.424667 1 2 cbr 1000 ------- 2 0.0 2.0 88 88
+ 6.433333 0 1 cbr 1000 ------- 2 0.0 2.0 89 89
- 6.433333 0 1 cbr 1000 ------- 2 0.0 2.0 89 89
- 6.478 1 2 cbr 1000 ------- 2 0.0 2.0 79 79
r 6.483 1 2 cbr 1000 ------- 2 0.0 2.0 77 77
r 6.491333 0 1 cbr 1000 ------- 2 0.0 2.0 89 89
+ 6.491333 1 2 cbr 1000 ------- 2 0.0 2.0 89 89
+ 6.5 0 1 cbr 1000 ------- 2 0.0 2.0 90 90
- 6.5 0 1 cbr 1000 ------- 2 0.0 2.0 90 90
r 6.558 0 1 cbr 1000 ------- 2 0.0 2.0 90 90
+ 6.558 1 2 cbr 1000 ------- 2 0.0 2.0 90 90
d 6.558 1 2 cbr 1000 ------- 2 0.0 2.0 90 90
- 6.558 1 2 cbr 1000 ------- 2 0.0 2.0 80 80
r 6.563 1 2 cbr 1000 ------- 2 0.0 2.0 79 79
+ 6.566667 0 1 cbr 1000 ------- 2 0.0 2.0 91 91
- 6.566667 0 1 cbr 1000 ------- 2 0.0 2.0 91 91
r 6.624667 0 1 cbr 1000 ------- 2 0.0 2.0 91 91
+ 6.624667 1 2 cbr 1000 ------- 2 0.0 2.0 91 91
+ 6.633333 0 1 cbr 1000 ------- 2 0.0 2.0 92 92
- 6.633333 0 1 cbr 1000 ------- 2 0.0 2.0 92 92
- 6.638 1 2 cbr 1000 ------- 2 0.0 2.0 81 81
r 6.643 1 2 cbr 1000 ------- 2 0.0 2.0 80 80
r 6.691333 0 1 cbr 1000 ------- 2 0.0 2.0 92 92
+ 6.691333 1 2 cbr 1000 ------- 2 0.0 2.0 92 92
+ 6.7 0 1 cbr 1000 ------- 2 0.0 2.0 93 93
- 6.7 0 1 cbr 1000 ------- 2 0.0 2.0 93 93
- 6.718 1 2 cbr 1000 ------- 2 0.0 2.0 82 82
r 6.723 1 2 cbr 1000 ------- 2 0.0 2.0 81 81
r 6.758 0 1 cbr 1000 ------- 2 0.0 2.0 93 93
+ 6.758 1 2 cbr 1000 ------- 2 0.0 2.0 93 93
+ 6.766667 0 1 cbr 1000 ------- 2 0.0 2.0 94 94
- 6.766667 0 1 cbr 1000 ------- 2 0.0 2.0 94 94
- 6.798 1 2 cbr 1000 ------- 2 0.0 2.0 83 83
r 6.803 1 2 cbr 1000 ------- 2 0.0 2.0 82 82
r 6.824667 0 1 cbr 1000 ------- 2 0.0 2.0 94 94
+ 6.824667 1 2 cbr 1000 ------- 2 0.0 2.0 94 94
+ 6.833333 0 1 cbr 1000 ------- 2 0.0 2.0 95 95
- 6.833333 0 1 cbr 1000 ------- 2 0.0 2.0 95 95
- 6.878 1 2 cbr 1000 ------- 2 0.0 2.0 85 85
r 6.883 1 2 cbr 1000 ------- 2 0.0 2.0 83 83
r 6.891333 0 1 cbr 1000 ------- 2 0.0 2.0 95 95
+ 6.891333 1 2 cbr 1000 ------- 2 0.0 2.0 95 95
+ 6.9 0 1 cbr 1000 ------- 2 0.0 2.0 96 96
- 6.9 0 1 cbr 1000 ------- 2 0.0 2.0 96 96
r 6.958 0 1 cbr 1000 ------- 2 0.0 2.0 96 96
+ 6.958 1 2 cbr 1000 ------- 2 0.0 2.0 96 96
d 6.958 1 2 cbr 1000 ------- 2 0.0 2.0 96 96
- 6.958 1 2 cbr 1000 ------- 2 0.0 2.0 86 86
r 6.963 1 2 cbr 1000 ------- 2 0.0 2.0 85 85
+ 6.966667 0 1 cbr 1000 ------- 2 0.0 2.0 97 97
- 6.966667 0 1 cbr 1000 ------- 2 0.0 2.0 97 97
r 7.024667 0 1 cbr 1000 ------- 2 0.0 2.0 97 97
+ 7.024667 1 2 cbr 1000 ------- 2 0.0 2.0 97 97
+ 7.033333 0 1 cbr 1000 ------- 2 0.0 2.0 98 98
- 7.033333 0 1 cbr 1000 ------- 2 0.0 2.0 98 98
- 7.038 1 2 cbr 1000 ------- 2 0.0 2.0 87 87
r 7.043 1 2 cbr 1000 ------- 2 0.0 2.0 86 86
r 7.091333 0 1 cbr 1000 ------- 2 0.0 2.0 98 98
+ 7.091333 1 2 cbr 1000 ------- 2 0.0 2.0 98 98
+ 7.1 0 1 cbr 1000 ------- 2 0.0 2.0 99 99
- 7.1 0 1 cbr 1000 ------- 2 0.0 2.0 99 99
- 7.118 1 2 cbr 1000 ------- 2 0.0 2.0 88 88
r 7.123 1 2 cbr 1000 ------- 2 0.0 2.0 87 87
r 7.158 0 1 cbr 1000 ------- 2 0.0 2.0 99 99
+ 7.158 1 2 cbr 1000 ------- 2 0.0 2.0 99 99
+ 7.166667 0 1 cbr 1000 ------- 2 0.0 2.0 100 100
- 7.166667 0 1 cbr 1000 ------- 2 0.0 2.0 100 100
- 7.198 1 2 cbr 1000 ------- 2 0.0 2.0 89 89
r 7.203 1 2 cbr 1000 ------- 2 0.0 2.0 88 88
r 7.224667 0 1 cbr 1000 ------- 2 0.0 2.0 100 100
+ 7.224667 1 2 cbr 1000 ------- 2 0.0 2.0 100 100
+ 7.233333 0 1 cbr 1000 ------- 2 0.0 2.0 101 101
- 7.233333 0 1 cbr 1000 ------- 2 0.0 2.0 101 101
- 7.278 1 2 cbr 1000 ------- 2 0.0 2.0 91 91
r 7.283 1 2 cbr 1000 ------- 2 0.0 2.0 89 89
r 7.291333 0 1 cbr 1000 ------- 2 0.0 2.0 101 101
+ 7.291333 1 2 cbr 1000 ------- 2 0.0 2.0 101 101
+ 7.3 0 1 cbr 1000 ------- 2 0.0 2.0 102 102
- 7.3 0 1 cbr 1000 ------- 2 0.0 2.0 102 102
r 7.358 0 1 cbr 1000 ------- 2 0.0 2.0 102 102
+ 7.358 1 2 cbr 1000 ------- 2 0.0 2.0 102 102
d 7.358 1 2 cbr 1000 ------- 2 0.0 2.0 102 102
- 7.358 1 2 cbr 1000 ------- 2 0.0 2.0 92 92
r 7.363 1 2 cbr 1000 ------- 2 0.0 2.0 91 91
+ 7.366667 0 1 cbr 1000 ------- 2 0.0 2.0 103 103
- 7.366667 0 1 cbr 1000 ------- 2 0.0 2.0 103 103
r 7.424667 0 1 cbr 1000 ------- 2 0.0 2.0 103 103
+ 7.424667 1 2 cbr 1000 ------- 2 0.0 2.0 103 103
+ 7.433333 0 1 cbr 1000 ------- 2 0.0 2.0 104 104
- 7.433333 0 1 cbr 1000 ------- 2 0.0 2.0 104 104
- 7.438 1 2 cbr 1000 ------- 2 0.0 2.0 93 93
r 7.443 1 2 cbr 1000 ------- 2 0.0 2.0 92 92
r 7.491333 0 1 cbr 1000 ------- 2 0.0 2.0 104 104
+ 7.491333 1 2 cbr 1000 ------- 2 0.0 2.0 104 104
+ 7.5 0 1 cbr 1000 ------- 2 0.0 2.0 105 105
- 7.5 0 1 cbr 1000 ------- 2 0.0 2.0 105 105
- 7.518 1 2 cbr 1000 ------- 2 0.0 2.0 94 94
r 7.523 1 2 cbr 1000 ------- 2 0.0 2.0 93 93
r 7.558 0 1 cbr 1000 ------- 2 0.0 2.0 105 105
+ 7.558 1 2 cbr 1000 ------- 2 0.0 2.0 105 105
+ 7.566667 0 1 cbr 1000 ------- 2 0.0 2.0 106 106
- 7.566667 0 1 cbr 1000 ------- 2 0.0 2.0 106 106
- 7.598 1 2 cbr 1000 ------- 2 0.0 2.0 95 95
r 7.603 1 2 cbr 1000 ------- 2 0.0 2.0 94 94
r 7.624667 0 1 cbr 1000 ------- 2 0.0 2.0 106 106
+ 7.624667 1 2 cbr 1000 ------- 2 0.0 2.0 106 106
+ 7.633333 0 1 cbr 1000 ------- 2 0.0 2.0 107 107
- 7.633333 0 1 cbr 1000 ------- 2 0.0 2.0 107 107
- 7.678 1 2 cbr 1000 ------- 2 0.0 2.0 97 97
r 7.683 1 2 cbr 1000 ------- 2 0.0 2.0 95 95
r 7.691333 0 1 cbr 1000 ------- 2 0.0 2.0 107 107
+ 7.691333 1 2 cbr 1000 ------- 2 0.0 2.0 107 107
+ 7.7 0 1 cbr 1000 ------- 2 0.0 2.0 108 108
- 7.7 0 1 cbr 1000 ------- 2 0.0 2.0 108 108
r 7.758 0 1 cbr 1000 ------- 2 0.0 2.0 108 108
+ 7.758 1 2 cbr 1000 ------- 2 0.0 2.0 108 108
d 7.758 1 2 cbr 1000 ------- 2 0.0 2.0 108 108
- 7.758 1 2 cbr 1000 ------- 2 0.0 2.0 98 98
r 7.763 1 2 cbr 1000 ------- 2 0.0 2.0 97 97
+ 7.766667 0 1 cbr 1000 ------- 2 0.0 2.0 109 109
- 7.766667 0 1 cbr 1000 ------- 2 0.0 2.0 109 109
r 7.824667 0 1 cbr 1000 ------- 2 0.0 2.0 109 109
+ 7.824667 1 2 cbr 1000 ------- 2 0.0 2.0 109 109
+ 7.833333 0 1 cbr 1000 ------- 2 0.0 2.0 110 110
- 7.833333 0 1 cbr 1000 ------- 2 0.0 2.0 110 110
- 7.838 1 2 cbr 1000 ------- 2 0.0 2.0 99 99
r 7.843 1 2 cbr 1000 ------- 2 0.0 2.0 98 98
r 7.891333 0 1 cbr 1000 ------- 2 0.0 2.0 110 110
+ 7.891333 1 2 cbr 1000 ------- 2 0.0 2.0 110 110
+ 7.9 0 1 cbr 1000 ------- 2 0.0 2.0 111 111
- 7.9 0 1 cbr 1000 ------- 2 0.0 2.0 111 111
- 7.918 1 2 cbr 1000 ------- 2 0.0 2.0 100 100
r 7.923 1 2 cbr 1000 ------- 2 0.0 2.0 99 99
r 7.958 0 1 cbr 1000 ------- 2 0.0 2.0 111 111
+ 7.958 1 2 cbr 1000 ------- 2 0.0 2.0 111 111
+ 7.966667 0 1 cbr 1000 ------- 2 0.0 2.0 112 112
- 7.966667 0 1 cbr 1000 ------- 2 0.0 2.0 112 112
- 7.998 1 2 cbr 1000 ------- 2 0.0 2.0 101 101
r 8.003 1 2 cbr 1000 ------- 2 0.0 2.0 100 100
r 8.024667 0 1 cbr 1000 ------- 2 0.0 2.0 112 112
+ 8.024667 1 2 cbr 1000 ------- 2 0.0 2.0 112 112