V -t * -v 1.0a5 -a 0
A -t * -n 1 -p 0 -o 0x7fffffff -c 30 -a 1
A -t * -h 1 -m 1073741823 -s 0
n -t * -a 4 -s 4 -S UP -v circle -c black -i black
n -t * -a 0 -s 0 -S UP -v circle -c black -i black
n -t * -a 1 -s 1 -S UP -v circle -c black -i black
n -t * -a 2 -s 2 -S UP -v circle -c black -i black
n -t * -a 3 -s 3 -S UP -v circle -c black -i black
l -t * -s 0 -d 2 -S UP -r 1000000 -D 0.00050000000000000001 -c black -o right-down
l -t * -s 1 -d 2 -S UP -r 2000000 -D 0.00050000000000000001 -c black -o right-up
l -t * -s 2 -d 3 -S UP -r 2000000 -D 0.00050000000000000001 -c black -o right
l -t * -s 3 -d 4 -S UP -r 2000000 -D 0.00050000000000000001 -c black -o right
q -t * -s 3 -d 2 -a 0.5
q -t * -s 2 -d 3 -a 0.5
+ -t 0.5 -s 0 -d 2 -p cbr -e 500 -c 2 -i 0 -a 2 -x {0.0 4.1 0 ------- null}
- -t 0.5 -s 0 -d 2 -p cbr -e 500 -c 2 -i 0 -a 2 -x {0.0 4.1 0 ------- null}
h -t 0.5 -s 0 -d 2 -p cbr -e 500 -c 2 -i 0 -a 2 -x {0.0 4.1 -1 ------- null}
+ -t 0.504 -s 0 -d 2 -p cbr -e 500 -c 2 -i 1 -a 2 -x {0.0 4.1 1 ------- null}
- -t 0.504 -s 0 -d 2 -p cbr -e 500 -c 2 -i 1 -a 2 -x {0.0 4.1 1 ------- null}
h -t 0.504 -s 0 -d 2 -p cbr -e 500 -c 2 -i 1 -a 2 -x {0.0 4.1 -1 ------- null}
r -t 0.5045 -s 0 -d 2 -p cbr -e 500 -c 2 -i 0 -a 2 -x {0.0 4.1 0 ------- null}
+ -t 0.5045 -s 2 -d 3 -p cbr -e 500 -c 2 -i 0 -a 2 -x {0.0 4.1 0 ------- null}
- -t 0.5045 -s 2 -d 3 -p cbr -e 500 -c 2 -i 0 -a 2 -x {0.0 4.1 0 ------- null}
h -t 0.5045 -s 2 -d 3 -p cbr -e 500 -c 2 -i 0 -a 2 -x {0.0 4.1 -1 ------- null}
r -t 0.507 -s 2 -d 3 -p cbr -e 500 -c 2 -i 0 -a 2 -x {0.0 4.1 0 ------- null}
+ -t 0.507 -s 3 -d 4 -p cbr -e 500 -c 2 -i 0 -a 2 -x {0.0 4.1 0 ------- null}
- -t 0.507 -s 3 -d 4 -p cbr -e 500 -c 2 -i 0 -a 2 -x {0.0 4.1 0 ------- null}
h -t 0.507 -s 3 -d 4 -p cbr -e 500 -c 2 -i 0 -a 2 -x {0.0 4.1 -1 ------- null}
+ -t 0.508 -s 0 -d 2 -p cbr -e 500 -c 2 -i 2 -a 2 -x {0.0 4.1 2 ------- null}
- -t 0.508 -s 0 -d 2 -p cbr -e 500 -c 2 -i 2 -a 2 -x {0.0 4.1 2 ------- null}
h -t 0.508 -s 0 -d 2 -p cbr -e 500 -c 2 -i 2 -a 2 -x {0.0 4.1 -1 ------- null}
r -t 0.5085 -s 0 -d 2 -p cbr -e 500 -c 2 -i 1 -a 2 -x {0.0 4.1 1 ------- null}
+ -t 0.5085 -s 2 -d 3 -p cbr -e 500 -c 2 -i 1 -a 2 -x {0.0 4.1 1 ------- null}
- -t 0.5085 -s 2 -d 3 -p cbr -e 500 -c 2 -i 1 -a 2 -x {0.0 4.1 1 ------- null}
h -t 0.5085 -s 2 -d 3 -p cbr -e 500 -c 2 -i 1 -a 2 -x {0.0 4.1 -1 ------- null}
r -t 0.5095 -s 3 -d 4 -p cbr -e 500 -c 2 -i 0 -a 2 -x {0.0 4.1 0 ------- null}
r -t 0.511 -s 2 -d 3 -p cbr -e 500 -c 2 -i 1 -a 2 -x {0.0 4.1 1 ------- null}
+ -t 0.511 -s 3 -d 4 -p cbr -e 500 -c 2 -i 1 -a 2 -x {0.0 4.1 1 ------- null}
- -t 0.511 -s 3 -d 4 -p cbr -e 500 -c 2 -i 1 -a 2 -x {0.0 4.1 1 ------- null}
h -t 0.511 -s 3 -d 4 -p cbr -e 500 -c 2 -i 1 -a 2 -x {0.0 4.1 -1 ------- null}
+ -t 0.512 -s 0 -d 2 -p cbr -e 500 -c 2 -i 3 -a 2 -x {0.0 4.1 3 ------- null}
- -t 0.512 -s 0 -d 2 -p cbr -e 500 -c 2 -i 3 -a 2 -x {0.0 4.1 3 ------- null}
h -t 0.512 -s 0 -d 2 -p cbr -e 500 -c 2 -i 3 -a 2 -x {0.0 4.1 -1 ------- null}
r -t 0.5125 -s 0 -d 2 -p cbr -e 500 -c 2 -i 2 -a 2 -x {0.0 4.1 2 ------- null}
+ -t 0.5125 -s 2 -d 3 -p cbr -e 500 -c 2 -i 2 -a 2 -x {0.0 4.1 2 ------- null}
- -t 0.5125 -s 2 -d 3 -p cbr -e 500 -c 2 -i 2 -a 2 -x {0.0 4.1 2 ------- null}
h -t 0.5125 -s 2 -d 3 -p cbr -e 500 -c 2 -i 2 -a 2 -x {0.0 4.1 -1 ------- null}
r -t 0.5135 -s 3 -d 4 -p cbr -e 500 -c 2 -i 1 -a 2 -x {0.0 4.1 1 ------- null}
r -t 0.515 -s 2 -d 3 -p cbr -e 500 -c 2 -i 2 -a 2 -x {0.0 4.1 2 ------- null}
+ -t 0.515 -s 3 -d 4 -p cbr -e 500 -c 2 -i 2 -a 2 -x {0.0 4.1 2 ------- null}
- -t 0.515 -s 3 -d 4 -p cbr -e 500 -c 2 -i 2 -a 2 -x {0.0 4.1 2 ------- null}
h -t 0.515 -s 3 -d 4 -p cbr -e 500 -c 2 -i 2 -a 2 -x {0.0 4.1 -1 ------- null}
+ -t 0.516 -s 0 -d 2 -p cbr -e 500 -c 2 -i 4 -a 2 -x {0.0 4.1 4 ------- null}
- -t 0.516 -s 0 -d 2 -p cbr -e 500 -c 2 -i 4 -a 2 -x {0.0 4.1 4 ------- null}
h -t 0.516 -s 0 -d 2 -p cbr -e 500 -c 2 -i 4 -a 2 -x {0.0 4.1 -1 ------- null}
r -t 0.5165 -s 0 -d 2 -p cbr -e 500 -c 2 -i 3 -a 2 -x {0.0 4.1 3 ------- null}
+ -t 0.5165 -s 2 -d 3 -p cbr -e 500 -c 2 -i 3 -a 2 -x {0.0 4.1 3 ------- null}
- -t 0.5165 -s 2 -d 3 -p cbr -e 500 -c 2 -i 3 -a 2 -x {0.0 4.1 3 ------- null}
h -t 0.5165 -s 2 -d 3 -p cbr -e 500 -c 2 -i 3 -a 2 -x {0.0 4.1 -1 ------- null}
r -t 0.5175 -s 3 -d 4 -p cbr -e 500 -c 2 -i 2 -a 2 -x {0.0 4.1 2 ------- null}
r -t 0.519 -s 2 -d 3 -p cbr -e 500 -c 2 -i 3 -a 2 -x {0.0 4.1 3 ------- null}
+ -t 0.519 -s 3 -d 4 -p cbr -e 500 -c 2 -i 3 -a 2 -x {0.0 4.1 3 ------- null}
- -t 0.519 -s 3 -d 4 -p cbr -e 500 -c 2 -i 3 -a 2 -x {0.0 4.1 3 ------- null}
h -t 0.519 -s 3 -d 4 -p cbr -e 500 -c 2 -i 3 -a 2 -x {0.0 4.1 -1 ------- null}
+ -t 0.52 -s 0 -d 2 -p cbr -e 500 -c 2 -i 5 -a 2 -x {0.0 4.1 5 ------- null}
- -t 0.52 -s 0 -d 2 -p cbr -e 500 -c 2 -i 5 -a 2 -x {0.0 4.1 5 ------- null}
h -t 0.52 -s 0 -d 2 -p cbr -e 500 -c 2 -i 5 -a 2 -x {0.0 4.1 -1 ------- null}
r -t 0.5205 -s 0 -d 2 -p cbr -e 500 -c 2 -i 4 -a 2 -x {0.0 4.1 4 ------- null}
+ -t 0.5205 -s 2 -d 3 -p cbr -e 500 -c 2 -i 4 -a 2 -x {0.0 4.1 4 ------- null}
- -t 0.5205 -s 2 -d 3 -p cbr -e 500 -c 2 -i 4 -a 2 -x {0.0 4.1 4 ------- null}
h -t 0.5205 -s 2 -d 3 -p cbr -e 500 -c 2 -i 4 -a 2 -x {0.0 4.1 -1 ------- null}
r -t 0.5215 -s 3 -d 4 -p cbr -e 500 -c 2 -i 3 -a 2 -x {0.0 4.1 3 ------- null}
r -t 0.523 -s 2 -d 3 -p cbr -e 500 -c 2 -i 4 -a 2 -x {0.0 4.1 4 ------- null}
+ -t 0.523 -s 3 -d 4 -p cbr -e 500 -c 2 -i 4 -a 2 -x {0.0 4.1 4 ------- null}
- -t 0.523 -s 3 -d 4 -p cbr -e 500 -c 2 -i 4 -a 2 -x {0.0 4.1 4 ------- null}
h -t 0.523 -s 3 -d 4 -p cbr -e 500 -c 2 -i 4 -a 2 -x {0.0 4.1 -1 ------- null}
+ -t 0.524 -s 0 -d 2 -p cbr -e 500 -c 2 -i 6 -a 2 -x {0.0 4.1 6 ------- null}
- -t 0.524 -s 0 -d 2 -p cbr -e 500 -c 2 -i 6 -a 2 -x {0.0 4.1 6 ------- null}
h -t 0.524 -s 0 -d 2 -p cbr -e 500 -c 2 -i 6 -a 2 -x {0.0 4.1 -1 ------- null}
r -t 0.5245 -s 0 -d 2 -p cbr -e 500 -c 2 -i 5 -a 2 -x {0.0 4.1 5 ------- null}
+ -t 0.5245 -s 2 -d 3 -p cbr -e 500 -c 2 -i 5 -a 2 -x {0.0 4.1 5 ------- null}
- -t 0.5245 -s 2 -d 3 -p cbr -e 500 -c 2 -i 5 -a 2 -x {0.0 4.1 5 ------- null}
h -t 0.5245 -s 2 -d 3 -p cbr -e 500 -c 2 -i 5 -a 2 -x {0.0 4.1 -1 ------- null}
r -t 0.5255 -s 3 -d 4 -p cbr -e 500 -c 2 -i 4 -a 2 -x {0.0 4.1 4 ------- null}
r -t 0.527 -s 2 -d 3 -p cbr -e 500 -c 2 -i 5 -a 2 -x {0.0 4.1 5 ------- null}
+ -t 0.527 -s 3 -d 4 -p cbr -e 500 -c 2 -i 5 -a 2 -x {0.0 4.1 5 ------- null}
- -t 0.527 -s 3 -d 4 -p cbr -e 500 -c 2 -i 5 -a 2 -x {0.0 4.1 5 ------- null}
h -t 0.527 -s 3 -d 4 -p cbr -e 500 -c 2 -i 5 -a 2 -x {0.0 4.1 -1 ------- null}
+ -t 0.528 -s 0 -d 2 -p cbr -e 500 -c 2 -i 7 -a 2 -x {0.0 4.1 7 ------- null}
- -t 0.528 -s 0 -d 2 -p cbr -e 500 -c 2 -i 7 -a 2 -x {0.0 4.1 7 ------- null}
h -t 0.528 -s 0 -d 2 -p cbr -e 500 -c 2 -i 7 -a 2 -x {0.0 4.1 -1 ------- null}
r -t 0.5285 -s 0 -d 2 -p cbr -e 500 -c 2 -i 6 -a 2 -x {0.0 4.1 6 ------- null}
+ -t 0.5285 -s 2 -d 3 -p cbr -e 500 -c 2 -i 6 -a 2 -x {0.0 4.1 6 ------- null}
- -t 0.5285 -s 2 -d 3 -p cbr -e 500 -c 2 -i 6 -a 2 -x {0.0 4.1 6 ------- null}
h -t 0.5285 -s 2 -d 3 -p cbr -e 500 -c 2 -i 6 -a 2 -x {0.0 4.1 -1 ------- null}
r -t 0.5295 -s 3 -d 4 -p cbr -e 500 -c 2 -i 5 -a 2 -x {0.0 4.1 5 ------- null}
r -t 0.531 -s 2 -d 3 -p cbr -e 500 -c 2 -i 6 -a 2 -x {0.0 4.1 6 ------- null}
+ -t 0.531 -s 3 -d 4 -p cbr -e 500 -c 2 -i 6 -a 2 -x {0.0 4.1 6 ------- null}
- -t 0.531 -s 3 -d 4 -p cbr -e 500 -c 2 -i 6 -a 2 -x {0.0 4.1 6 ------- null}
h -t 0.531 -s 3 -d 4 -p cbr -e 500 -c 2 -i 6 -a 2 -x {0.0 4.1 -1 ------- null}
+ -t 0.532 -s 0 -d 2 -p cbr -e 500 -c 2 -i 8 -a 2 -x {0.0 4.1 8 ------- null}
- -t 0.532 -s 0 -d 2 -p cbr -e 500 -c 2 -i 8 -a 2 -x {0.0 4.1 8 ------- null}
h -t 0.532 -s 0 -d 2 -p cbr -e 500 -c 2 -i 8 -a 2 -x {0.0 4.1 -1 ------- null}
r -t 0.5325 -s 0 -d 2 -p cbr -e 500 -c 2 -i 7 -a 2 -x {0.0 4.1 7 ------- null}
+ -t 0.5325 -s 2 -d 3 -p cbr -e 500 -c 2 -i 7 -a 2 -x {0.0 4.1 7 ------- null}
- -t 0.5325 -s 2 -d 3 -p cbr -e 500 -c 2 -i 7 -a 2 -x {0.0 4.1 7 ------- null}
h -t 0.5325 -s 2 -d 3 -p cbr -e 500 -c 2 -i 7 -a 2 -x {0.0 4.1 -1 ------- null}
r -t 0.5335 -s 3 -d 4 -p cbr -e 500 -c 2 -i 6 -a 2 -x {0.0 4.1 6 ------- null}
r -t 0.535 -s 2 -d 3 -p cbr -e 500 -c 2 -i 7 -a 2 -x {0.0 4.1 7 ------- null}
+ -t 0.535 -s 3 -d 4 -p cbr -e 500 -c 2 -i 7 -a 2 -x {0.0 4.1 7 ------- null}
- -t 0.535 -s 3 -d 4 -p cbr -e 500 -c 2 -i 7 -a 2 -x {0.0 4.1 7 ------- null}
h -t 0.535 -s 3 -d 4 -p cbr -e 500 -c 2 -i 7 -a 2 -x {0.0 4.1 -1 ------- null}
+ -t 0.536 -s 0 -d 2 -p cbr -e 500 -c 2 -i 9 -a 2 -x {0.0 4.1 9 ------- null}
- -t 0.536 -s 0 -d 2 -p cbr -e 500 -c 2 -i 9 -a 2 -x {0.0 4.1 9 ------- null}
h -t 0.536 -s 0 -d 2 -p cbr -e 500 -c 2 -i 9 -a 2 -x {0.0 4.1 -1 ------- null}
r -t 0.5365 -s 0 -d 2 -p cbr -e 500 -c 2 -i 8 -a 2 -x {0.0 4.1 8 ------- null}
+ -t 0.5365 -s 2 -d 3 -p cbr -e 500 -c 2 -i 8 -a 2 -x {0.0 4.1 8 ------- null}
- -t 0.5365 -s 2 -d 3 -p cbr -e 500 -c 2 -i 8 -a 2 -x {0.0 4.1 8 ------- null}
h -t 0.5365 -s 2 -d 3 -p cbr -e 500 -c 2 -i 8 -a 2 -x {0.0 4.1 -1 ------- null}
r -t 0.5375 -s 3 -d 4 -p cbr -e 500 -c 2 -i 7 -a 2 -x {0.0 4.1 7 ------- null}
r -t 0.539 -s 2 -d 3 -p cbr -e 500 -c 2 -i 8 -a 2 -x {0.0 4.1 8 ------- null}
+ -t 0.539 -s 3 -d 4 -p cbr -e 500 -c 2 -i 8 -a 2 -x {0.0 4.1 8 ------- null}
- -t 0.539 -s 3 -d 4 -p cbr -e 500 -c 2 -i 8 -a 2 -x {0.0 4.1 8 ------- null}
h -t 0.539 -s 3 -d 4 -p cbr -e 500 -c 2 -i 8 -a 2 -x {0.0 4.1 -1 ------- null}
+ -t 0.54 -s 0 -d 2 -p cbr -e 500 -c 2 -i 10 -a 2 -x {0.0 4.1 10 ------- null}
- -t 0.54 -s 0 -d 2 -p cbr -e 500 -c 2 -i 10 -a 2 -x {0.0 4.1 10 ------- null}
h -t 0.54 -s 0 -d 2 -p cbr -e 500 -c 2 -i 10 -a 2 -x {0.0 4.1 -1 ------- null}
r -t 0.5405 -s 0 -d 2 -p cbr -e 500 -c 2 -i 9 -a 2 -x {0.0 4.1 9 ------- null}
+ -t 0.5405 -s 2 -d 3 -p cbr -e 500 -c 2 -i 9 -a 2 -x {0.0 4.1 9 ------- null}
- -t 0.5405 -s 2 -d 3 -p cbr -e 500 -c 2 -i 9 -a 2 -x {0.0 4.1 9 ------- null}
h -t 0.5405 -s 2 -d 3 -p cbr -e 500 -c 2 -i 9 -a 2 -x {0.0 4.1 -1 ------- null}
r -t 0.5415 -s 3 -d 4 -p cbr -e 500 -c 2 -i 8 -a 2 -x {0.0 4.1 8 ------- null}
r -t 0.543 -s 2 -d 3 -p cbr -e 500 -c 2 -i 9 -a 2 -x {0.0 4.1 9 ------- null}
+ -t 0.543 -s 3 -d 4 -p cbr -e 500 -c 2 -i 9 -a 2 -x {0.0 4.1 9 ------- null}
- -t 0.543 -s 3 -d 4 -p cbr -e 500 -c 2 -i 9 -a 2 -x {0.0 4.1 9 ------- null}
h -t 0.543 -s 3 -d 4 -p cbr -e 500 -c 2 -i 9 -a 2 -x {0.0 4.1 -1 ------- null}
+ -t 0.544 -s 0 -d 2 -p cbr -e 500 -c 2 -i 11 -a 2 -x {0.0 4.1 11 ------- null}
- -t 0.544 -s 0 -d 2 -p cbr -e 500 -c 2 -i 11 -a 2 -x {0.0 4.1 11 ------- null}
h -t 0.544 -s 0 -d 2 -p cbr -e 500 -c 2 -i 11 -a 2 -x {0.0 4.1 -1 ------- null}
r -t 0.5445 -s 0 -d 2 -p cbr -e 500 -c 2 -i 10 -a 2 -x {0.0 4.1 10 ------- null}
+ -t 0.5445 -s 2 -d 3 -p cbr -e 500 -c 2 -i 10 -a 2 -x {0.0 4.1 10 ------- null}
- -t 0.5445 -s 2 -d 3 -p cbr -e 500 -c 2 -i 10 -a 2 -x {0.0 4.1 10 ------- null}
h -t 0.5445 -s 2 -d 3 -p cbr -e 500 -c 2 -i 10 -a 2 -x {0.0 4.1 -1 ------- null}
r -t 0.5455 -s 3 -d 4 -p cbr -e 500 -c 2 -i 9 -a 2 -x {0.0 4.1 9 ------- null}
r -t 0.547 -s 2 -d 3 -p cbr -e 500 -c 2 -i 10 -a 2 -x {0.0 4.1 10 ------- null}
+ -t 0.547 -s 3 -d 4 -p cbr -e 500 -c 2 -i 10 -a 2 -x {0.0 4.1 10 ------- null}
- -t 0.547 -s 3 -d 4 -p cbr -e 500 -c 2 -i 10 -a 2 -x {0.0 4.1 10 ------- null}
h -t 0.547 -s 3 -d 4 -p cbr -e 500 -c 2 -i 10 -a 2 -x {0.0 4.1 -1 ------- null}
+ -t 0.548 -s 0 -d 2 -p cbr -e 500 -c 2 -i 12 -a 2 -x {0.0 4.1 12 ------- null}
- -t 0.548 -s 0 -d 2 -p cbr -e 500 -c 2 -i 12 -a 2 -x {0.0 4.1 12 ------- null}
h -t 0.548 -s 0 -d 2 -p cbr -e 500 -c 2 -i 12 -a 2 -x {0.0 4.1 -1 ------- null}
r -t 0.5485 -s 0 -d 2 -p cbr -e 500 -c 2 -i 11 -a 2 -x {0.0 4.1 11 ------- null}
+ -t 0.5485 -s 2 -d 3 -p cbr -e 500 -c 2 -i 11 -a 2 -x {0.0 4.1 11 ------- null}
- -t 0.5485 -s 2 -d 3 -p cbr -e 500 -c 2 -i 11 -a 2 -x {0.0 4.1 11 ------- null}
h -t 0.5485 -s 2 -d 3 -p cbr -e 500 -c 2 -i 11 -a 2 -x {0.0 4.1 -1 ------- null}
r -t 0.5495 -s 3 -d 4 -p cbr -e 500 -c 2 -i 10 -a 2 -x {0.0 4.1 10 ------- null}
r -t 0.551 -s 2 -d 3 -p cbr -e 500 -c 2 -i 11 -a 2 -x {0.0 4.1 11 ------- null}
+ -t 0.551 -s 3 -d 4 -p cbr -e 500 -c 2 -i 11 -a 2 -x {0.0 4.1 11 ------- null}
- -t 0.551 -s 3 -d 4 -p cbr -e 500 -c 2 -i 11 -a 2 -x {0.0 4.1 11 ------- null}
h -t 0.551 -s 3 -d 4 -p cbr -e 500 -c 2 -i 11 -a 2 -x {0.0 4.1 -1 ------- null}
+ -t 0.552 -s 0 -d 2 -p cbr -e 500 -c 2 -i 13 -a 2 -x {0.0 4.1 13 ------- null}
- -t 0.552 -s 0 -d 2 -p cbr -e 500 -c 2 -i 13 -a 2 -x {0.0 4.1 13 ------- null}
h -t 0.552 -s 0 -d 2 -p cbr -e 500 -c 2 -i 13 -a 2 -x {0.0 4.1 -1 ------- null}
r -t 0.5525 -s 0 -d 2 -p cbr -e 500 -c 2 -i 12 -a 2 -x {0.0 4.1 12 ------- null}
+ -t 0.5525 -s 2 -d 3 -p cbr -e 500 -c 2 -i 12 -a 2 -x {0.0 4.1 12 ------- null}
- -t 0.5525 -s 2 -d 3 -p cbr -e 500 -c 2 -i 12 -a 2 -x {0.0 4.1 12 ------- null}
h -t 0.5525 -s 2 -d 3 -p cbr -e 500 -c 2 -i 12 -a 2 -x {0.0 4.1 -1 ------- null}
r -t 0.5535 -s 3 -d 4 -p cbr -e 500 -c 2 -i 11 -a 2 -x {0.0 4.1 11 ------- null}
r -t 0.555 -s 2 -d 3 -p cbr -e 500 -c 2 -i 12 -a 2 -x {0.0 4.1 12 ------- null}
+ -t 0.555 -s 3 -d 4 -p cbr -e 500 -c 2 -i 12 -a 2 -x {0.0 4.1 12 ------- null}
- -t 0.555 -s 3 -d 4 -p cbr -e 500 -c 2 -i 12 -a 2 -x {0.0 4.1 12 ------- null}
h -t 0.555 -s 3 -d 4 -p cbr -e 500 -c 2 -i 12 -a 2 -x {0.0 4.1 -1 ------- null}
+ -t 0.556 -s 0 -d 2 -p cbr -e 500 -c 2 -i 14 -a 2 -x {0.0 4.1 14 ------- null}
- -t 0.556 -s 0 -d 2 -p cbr -e 500 -c 2 -i 14 -a 2 -x {0.0 4.1 14 ------- null}
h -t 0.556 -s 0 -d 2 -p cbr -e 500 -c 2 -i 14 -a 2 -x {0.0 4.1 -1 ------- null}
r -t 0.5565 -s 0 -d 2 -p cbr -e 500 -c 2 -i 13 -a 2 -x {0.0 4.1 13 ------- null}
+ -t 0.5565 -s 2 -d 3 -p cbr -e 500 -c 2 -i 13 -a 2 -x {0.0 4.1 13 ------- null}
- -t 0.5565 -s 2 -d 3 -p cbr -e 500 -c 2 -i 13 -a 2 -x {0.0 4.1 13 ------- null}
h -t 0.5565 -s 2 -d 3 -p cbr -e 500 -c 2 -i 13 -a 2 -x {0.0 4.1 -1 ------- null}
r -t 0.5575 -s 3 -d 4 -p cbr -e 500 -c 2 -i 12 -a 2 -x {0.0 4.1 12 ------- null}
r -t 0.559 -s 2 -d 3 -p cbr -e 500 -c 2 -i 13 -a 2 -x {0.0 4.1 13 ------- null}
+ -t 0.559 -s 3 -d 4 -p cbr -e 500 -c 2 -i 13 -a 2 -x {0.0 4.1 13 ------- null}
- -t 0.559 -s 3 -d 4 -p cbr -e 500 -c 2 -i 13 -a 2 -x {0.0 4.1 13 ------- null}
h -t 0.559 -s 3 -d 4 -p cbr -e 500 -c 2 -i 13 -a 2 -x {0.0 4.1 -1 ------- null}
+ -t 0.56 -s 0 -d 2 -p cbr -e 500 -c 2 -i 15 -a 2 -x {0.0 4.1 15 ------- null}
- -t 0.56 -s 0 -d 2 -p cbr -e 500 -c 2 -i 15 -a 2 -x {0.0 4.1 15 ------- null}
h -t 0.56 -s 0 -d 2 -p cbr -e 500 -c 2 -i 15 -a 2 -x {0.0 4.1 -1 ------- null}
r -t 0.5605 -s 0 -d 2 -p cbr -e 500 -c 2 -i 14 -a 2 -x {0.0 4.1 14 ------- null}
+ -t 0.5605 -s 2 -d 3 -p cbr -e 500 -c 2 -i 14 -a 2 -x {0.0 4.1 14 ------- null}
- -t 0.5605 -s 2 -d 3 -p cbr -e 500 -c 2 -i 14 -a 2 -x {0.0 4.1 14 ------- null}
h -t 0.5605 -s 2 -d 3 -p cbr -e 500 -c 2 -i 14 -a 2 -x {0.0 4.1 -1 ------- null}
r -t 0.5615 -s 3 -d 4 -p cbr -e 500 -c 2 -i 13 -a 2 -x {0.0 4.1 13 ------- null}
r -t 0.563 -s 2 -d 3 -p cbr -e 500 -c 2 -i 14 -a 2 -x {0.0 4.1 14 ------- null}
+ -t 0.563 -s 3 -d 4 -p cbr -e 500 -c 2 -i 14 -a 2 -x {0.0 4.1 14 ------- null}
- -t 0.563 -s 3 -d 4 -p cbr -e 500 -c 2 -i 14 -a 2 -x {0.0 4.1 14 ------- null}
h -t 0.563 -s 3 -d 4 -p cbr -e 500 -c 2 -i 14 -a 2 -x {0.0 4.1 -1 ------- null}
+ -t 0.564 -s 0 -d 2 -p cbr -e 500 -c 2 -i 16 -a 2 -x {0.0 4.1 16 ------- null}
- -t 0.564 -s 0 -d 2 -p cbr -e 500 -c 2 -i 16 -a 2 -x {0.0 4.1 16 ------- null}
h -t 0.564 -s 0 -d 2 -p cbr -e 500 -c 2 -i 16 -a 2 -x {0.0 4.1 -1 ------- null}
r -t 0.5645 -s 0 -d 2 -p cbr -e 500 -c 2 -i 15 -a 2 -x {0.0 4.1 15 ------- null}
+ -t 0.5645 -s 2 -d 3 -p cbr -e 500 -c 2 -i 15 -a 2 -x {0.0 4.1 15 ------- null}
- -t 0.5645 -s 2 -d 3 -p cbr -e 500 -c 2 -i 15 -a 2 -x {0.0 4.1 15 ------- null}
h -t 0.5645 -s 2 -d 3 -p cbr -e 500 -c 2 -i 15 -a 2 -x {0.0 4.1 -1 ------- null}
r -t 0.5655 -s 3 -d 4 -p cbr -e 500 -c 2 -i 14 -a 2 -x {0.0 4.1 14 ------- null}
r -t 0.567 -s 2 -d 3 -p cbr -e 500 -c 2 -i 15 -a 2 -x {0.0 4.1 15 ------- null}
+ -t 0.567 -s 3 -d 4 -p cbr -e 500 -c 2 -i 15 -a 2 -x {0.0 4.1 15 ------- null}
- -t 0.567 -s 3 -d 4 -p cbr -e 500 -c 2 -i 15 -a 2 -x {0.0 4.1 15 ------- null}
h -t 0.567 -s 3 -d 4 -p cbr -e 500 -c 2 -i 15 -a 2 -x {0.0 4.1 -1 ------- null}
+ -t 0.568 -s 0 -d 2 -p cbr -e 500 -c 2 -i 17 -a 2 -x {0.0 4.1 17 ------- null}
- -t 0.568 -s 0 -d 2 -p cbr -e 500 -c 2 -i 17 -a 2 -x {0.0 4.1 17 ------- null}
h -t 0.568 -s 0 -d 2 -p cbr -e 500 -c 2 -i 17 -a 2 -x {0.0 4.1 -1 ------- null}
r -t 0.5685 -s 0 -d 2 -p cbr -e 500 -c 2 -i 16 -a 2 -x {0.0 4.1 16 ------- null}
+ -t 0.5685 -s 2 -d 3 -p cbr -e 500 -c 2 -i 16 -a 2 -x {0.0 4.1 16 ------- null}
- -t 0.5685 -s 2 -d 3 -p cbr -e 500 -c 2 -i 16 -a 2 -x {0.0 4.1 16 ------- null}
h -t 0.5685 -s 2 -d 3 -p cbr -e 500 -c 2 -i 16 -a 2 -x {0.0 4.1 -1 ------- null}
r -t 0.5695 -s 3 -d 4 -p cbr -e 500 -c 2 -i 15 -a 2 -x {0.0 4.1 15 ------- null}
r -t 0.571 -s 2 -d 3 -p cbr -e 500 -c 2 -i 16 -a 2 -x {0.0 4.1 16 ------- null}
+ -t 0.571 -s 3 -d 4 -p cbr -e 500 -c 2 -i 16 -a 2 -x {0.0 4.1 16 ------- null}
- -t 0.571 -s 3 -d 4 -p cbr -e 500 -c 2 -i 16 -a 2 -x {0.0 4.1 16 ------- null}
h -t 0.571 -s 3 -d 4 -p cbr -e 500 -c 2 -i 16 -a 2 -x {0.0 4.1 -1 ------- null}
+ -t 0.572 -s 0 -d 2 -p cbr -e 500 -c 2 -i 18 -a 2 -x {0.0 4.1 18 ------- null}
- -t 0.572 -s 0 -d 2 -p cbr -e 500 -c 2 -i 18 -a 2 -x {0.0 4.1 18 ------- null}
h -t 0.572 -s 0 -d 2 -p cbr -e 500 -c 2 -i 18 -a 2 -x {0.0 4.1 -1 ------- null}
r -t 0.5725 -s 0 -d 2 -p cbr -e 500 -c 2 -i 17 -a 2 -x {0.0 4.1 17 ------- null}
+ -t 0.5725 -s 2 -d 3 -p cbr -e 500 -c 2 -i 17 -a 2 -x {0.0 4.1 17 ------- null}
- -t 0.5725 -s 2 -d 3 -p cbr -e 500 -c 2 -i 17 -a 2 -x {0.0 4.1 17 ------- null}
h -t 0.5725 -s 2 -d 3 -p cbr -e 500 -c 2 -i 17 -a 2 -x {0.0 4.1 -1 ------- null}
r -t 0.5735 -s 3 -d 4 -p cbr -e 500 -c 2 -i 16 -a 2 -x {0.0 4.1 16 ------- null}
r -t 0.575 -s 2 -d 3 -p cbr -e 500 -c 2 -i 17 -a 2 -x {0.0 4.1 17 ------- null}
+ -t 0.575 -s 3 -d 4 -p cbr -e 500 -c 2 -i 17 -a 2 -x {0.0 4.1 17 ------- null}
- -t 0.575 -s 3 -d 4 -p cbr -e 500 -c 2 -i 17 -a 2 -x {0.0 4.1 17 ------- null}
h -t 0.575 -s 3 -d 4 -p cbr -e 500 -c 2 -i 17 -a 2 -x {0.0 4.1 -1 ------- null}
+ -t 0.576 -s 0 -d 2 -p cbr -e 500 -c 2 -i 19 -a 2 -x {0.0 4.1 19 ------- null}
- -t 0.576 -s 0 -d 2 -p cbr -e 500 -c 2 -i 19 -a 2 -x {0.0 4.1 19 ------- null}
h -t 0.576 -s 0 -d 2 -p cbr -e 500 -c 2 -i 19 -a 2 -x {0.0 4.1 -1 ------- null}
r -t 0.5765 -s 0 -d 2 -p cbr -e 500 -c 2 -i 18 -a 2 -x {0.0 4.1 18 ------- null}
+ -t 0.5765 -s 2 -d 3 -p cbr -e 500 -c 2 -i 18 -a 2 -x {0.0 4.1 18 ------- null}
- -t 0.5765 -s 2 -d 3 -p cbr -e 500 -c 2 -i 18 -a 2 -x {0.0 4.1 18 ------- null}
h -t 0.5765 -s 2 -d 3 -p cbr -e 500 -c 2 -i 18 -a 2 -x {0.0 4.1 -1 ------- null}
r -t 0.5775 -s 3 -d 4 -p cbr -e 500 -c 2 -i 17 -a 2 -x {0.0 4.1 17 ------- null}
r -t 0.579 -s 2 -d 3 -p cbr -e 500 -c 2 -i 18 -a 2 -x {0.0 4.1 18 ------- null}
+ -t 0.579 -s 3 -d 4 -p cbr -e 500 -c 2 -i 18 -a 2 -x {0.0 4.1 18 ------- null}
- -t 0.579 -s 3 -d 4 -p cbr -e 500 -c 2 -i 18 -a 2 -x {0.0 4.1 18 ------- null}
h -t 0.579 -s 3 -d 4 -p cbr -e 500 -c 2 -i 18 -a 2 -x {0.0 4.1 -1 ------- null}
+ -t 0.58 -s 0 -d 2 -p cbr -e 500 -c 2 -i 20 -a 2 -x {0.0 4.1 20 ------- null}
- -t 0.58 -s 0 -d 2 -p cbr -e 500 -c 2 -i 20 -a 2 -x {0.0 4.1 20 ------- null}
h -t 0.58 -s 0 -d 2 -p cbr -e 500 -c 2 -i 20 -a 2 -x {0.0 4.1 -1 ------- null}
r -t 0.5805 -s 0 -d 2 -p cbr -e 500 -c 2 -i 19 -a 2 -x {0.0 4.1 19 ------- null}
+ -t 0.5805 -s 2 -d 3 -p cbr -e 500 -c 2 -i 19 -a 2 -x {0.0 4.1 19 ------- null}
- -t 0.5805 -s 2 -d 3 -p cbr -e 500 -c 2 -i 19 -a 2 -x {0.0 4.1 19 ------- null}
h -t 0.5805 -s 2 -d 3 -p cbr -e 500 -c 2 -i 19 -a 2 -x {0.0 4.1 -1 ------- null}
r -t 0.5815 -s 3 -d 4 -p cbr -e 500 -c 2 -i 18 -a 2 -x {0.0 4.1 18 ------- null}
r -t 0.583 -s 2 -d 3 -p cbr -e 500 -c 2 -i 19 -a 2 -x {0.0 4.1 19 ------- null}
+ -t 0.583 -s 3 -d 4 -p cbr -e 500 -c 2 -i 19 -a 2 -x {0.0 4.1 19 ------- null}
- -t 0.583 -s 3 -d 4 -p cbr -e 500 -c 2 -i 19 -a 2 -x {0.0 4.1 19 ------- null}
h -t 0.583 -s 3 -d 4 -p cbr -e 500 -c 2 -i 19 -a 2 -x {0.0 4.1 -1 ------- null}
+ -t 0.584 -s 0 -d 2 -p cbr -e 500 -c 2 -i 21 -a 2 -x {0.0 4.1 21 ------- null}
- -t 0.584 -s 0 -d 2 -p cbr -e 500 -c 2 -i 21 -a 2 -x {0.0 4.1 21 ------- null}
h -t 0.584 -s 0 -d 2 -p cbr -e 500 -c 2 -i 21 -a 2 -x {0.0 4.1 -1 ------- null}
r -t 0.5845 -s 0 -d 2 -p cbr -e 500 -c 2 -i 20 -a 2 -x {0.0 4.1 20 ------- null}
+ -t 0.5845 -s 2 -d 3 -p cbr -e 500 -c 2 -i 20 -a 2 -x {0.0 4.1 20 ------- null}
- -t 0.5845 -s 2 -d 3 -p cbr -e 500 -c 2 -i 20 -a 2 -x {0.0 4.1 20 ------- null}
h -t 0.5845 -s 2 -d 3 -p cbr -e 500 -c 2 -i 20 -a 2 -x {0.0 4.1 -1 ------- null}
r -t 0.5855 -s 3 -d 4 -p cbr -e 500 -c 2 -i 19 -a 2 -x {0.0 4.1 19 ------- null}
r -t 0.587 -s 2 -d 3 -p cbr -e 500 -c 2 -i 20 -a 2 -x {0.0 4.1 20 ------- null}
+ -t 0.587 -s 3 -d 4 -p cbr -e 500 -c 2 -i 20 -a 2 -x {0.0 4.1 20 ------- null}
- -t 0.587 -s 3 -d 4 -p cbr -e 500 -c 2 -i 20 -a 2 -x {0.0 4.1 20 ------- null}
h -t 0.587 -s 3 -d 4 -p cbr -e 500 -c 2 -i 20 -a 2 -x {0.0 4.1 -1 ------- null}
+ -t 0.588 -s 0 -d 2 -p cbr -e 500 -c 2 -i 22 -a 2 -x {0.0 4.1 22 ------- null}
- -t 0.588 -s 0 -d 2 -p cbr -e 500 -c 2 -i 22 -a 2 -x {0.0 4.1 22 ------- null}
h -t 0.588 -s 0 -d 2 -p cbr -e 500 -c 2 -i 22 -a 2 -x {0.0 4.1 -1 ------- null}
r -t 0.5885 -s 0 -d 2 -p cbr -e 500 -c 2 -i 21 -a 2 -x {0.0 4.1 21 ------- null}
+ -t 0.5885 -s 2 -d 3 -p cbr -e 500 -c 2 -i 21 -a 2 -x {0.0 4.1 21 ------- null}
- -t 0.5885 -s 2 -d 3 -p cbr -e 500 -c 2 -i 21 -a 2 -x {0.0 4.1 21 ------- null}
h -t 0.5885 -s 2 -d 3 -p cbr -e 500 -c 2 -i 21 -a 2 -x {0.0 4.1 -1 ------- null}
r -t 0.5895 -s 3 -d 4 -p cbr -e 500 -c 2 -i 20 -a 2 -x {0.0 4.1 20 ------- null}
r -t 0.591 -s 2 -d 3 -p cbr -e 500 -c 2 -i 21 -a 2 -x {0.0 4.1 21 ------- null}
+ -t 0.591 -s 3 -d 4 -p cbr -e 500 -c 2 -i 21 -a 2 -x {0.0 4.1 21 ------- null}
- -t 0.591 -s 3 -d 4 -p cbr -e 500 -c 2 -i 21 -a 2 -x {0.0 4.1 21 ------- null}
h -t 0.591 -s 3 -d 4 -p cbr -e 500 -c 2 -i 21 -a 2 -x {0.0 4.1 -1 ------- null}
+ -t 0.592 -s 0 -d 2 -p cbr -e 500 -c 2 -i 23 -a 2 -x {0.0 4.1 23 ------- null}
- -t 0.592 -s 0 -d 2 -p cbr -e 500 -c 2 -i 23 -a 2 -x {0.0 4.1 23 ------- null}
h -t 0.592 -s 0 -d 2 -p cbr -e 500 -c 2 -i 23 -a 2 -x {0.0 4.1 -1 ------- null}
r -t 0.5925 -s 0 -d 2 -p cbr -e 500 -c 2 -i 22 -a 2 -x {0.0 4.1 22 ------- null}
+ -t 0.5925 -s 2 -d 3 -p cbr -e 500 -c 2 -i 22 -a 2 -x {0.0 4.1 22 ------- null}
- -t 0.5925 -s 2 -d 3 -p cbr -e 500 -c 2 -i 22 -a 2 -x {0.0 4.1 22 ------- null}
h -t 0.5925 -s 2 -d 3 -p cbr -e 500 -c 2 -i 22 -a 2 -x {0.0 4.1 -1 ------- null}
r -t 0.5935 -s 3 -d 4 -p cbr -e 500 -c 2 -i 21 -a 2 -x {0.0 4.1 21 ------- null}
r -t 0.595 -s 2 -d 3 -p cbr -e 500 -c 2 -i 22 -a 2 -x {0.0 4.1 22 ------- null}
+ -t 0.595 -s 3 -d 4 -p cbr -e 500 -c 2 -i 22 -a 2 -x {0.0 4.1 22 ------- null}
- -t 0.595 -s 3 -d 4 -p cbr -e 500 -c 2 -i 22 -a 2 -x {0.0 4.1 22 ------- null}
h -t 0.595 -s 3 -d 4 -p cbr -e 500 -c 2 -i 22 -a 2 -x {0.0 4.1 -1 ------- null}
+ -t 0.596 -s 0 -d 2 -p cbr -e 500 -c 2 -i 24 -a 2 -x {0.0 4.1 24 ------- null}
- -t 0.596 -s 0 -d 2 -p cbr -e 500 -c 2 -i 24 -a 2 -x {0.0 4.1 24 ------- null}
h -t 0.596 -s 0 -d 2 -p cbr -e 500 -c 2 -i 24 -a 2 -x {0.0 4.1 -1 ------- null}
r -t 0.5965 -s 0 -d 2 -p cbr -e 500 -c 2 -i 23 -a 2 -x {0.0 4.1 23 ------- null}
+ -t 0.5965 -s 2 -d 3 -p cbr -e 500 -c 2 -i 23 -a 2 -x {0.0 4.1 23 ------- null}
- -t 0.5965 -s 2 -d 3 -p cbr -e 500 -c 2 -i 23 -a 2 -x {0.0 4.1 23 ------- null}
h -t 0.5965 -s 2 -d 3 -p cbr -e 500 -c 2 -i 23 -a 2 -x {0.0 4.1 -1 ------- null}
r -t 0.5975 -s 3 -d 4 -p cbr -e 500 -c 2 -i 22 -a 2 -x {0.0 4.1 22 ------- null}
r -t 0.599 -s 2 -d 3 -p cbr -e 500 -c 2 -i 23 -a 2 -x {0.0 4.1 23 ------- null}
+ -t 0.599 -s 3 -d 4 -p cbr -e 500 -c 2 -i 23 -a 2 -x {0.0 4.1 23 ------- null}
- -t 0.599 -s 3 -d 4 -p cbr -e 500 -c 2 -i 23 -a 2 -x {0.0 4.1 23 ------- null}
h -t 0.599 -s 3 -d 4 -p cbr -e 500 -c 2 -i 23 -a 2 -x {0.0 4.1 -1 ------- null}
+ -t 0.6 -s 0 -d 2 -p cbr -e 500 -c 2 -i 25 -a 2 -x {0.0 4.1 25 ------- null}
- -t 0.6 -s 0 -d 2 -p cbr -e 500 -c 2 -i 25 -a 2 -x {0.0 4.1 25 ------- null}
h -t 0.6 -s 0 -d 2 -p cbr -e 500 -c 2 -i 25 -a 2 -x {0.0 4.1 -1 ------- null}
r -t 0.6005 -s 0 -d 2 -p cbr -e 500 -c 2 -i 24 -a 2 -x {0.0 4.1 24 ------- null}
+ -t 0.6005 -s 2 -d 3 -p cbr -e 500 -c 2 -i 24 -a 2 -x {0.0 4.1 24 ------- null}
- -t 0.6005 -s 2 -d 3 -p cbr -e 500 -c 2 -i 24 -a 2 -x {0.0 4.1 24 ------- null}
h -t 0.6005 -s 2 -d 3 -p cbr -e 500 -c 2 -i 24 -a 2 -x {0.0 4.1 -1 ------- null}
r -t 0.6015 -s 3 -d 4 -p cbr -e 500 -c 2 -i 23 -a 2 -x {0.0 4.1 23 ------- null}
r -t 0.603 -s 2 -d 3 -p cbr -e 500 -c 2 -i 24 -a 2 -x {0.0 4.1 24 ------- null}
+ -t 0.603 -s 3 -d 4 -p cbr -e 500 -c 2 -i 24 -a 2 -x {0.0 4.1 24 ------- null}
- -t 0.603 -s 3 -d 4 -p cbr -e 500 -c 2 -i 24 -a 2 -x {0.0 4.1 24 ------- null}
h -t 0.603 -s 3 -d 4 -p cbr -e 500 -c 2 -i 24 -a 2 -x {0.0 4.1 -1 ------- null}
+ -t 0.604 -s 0 -d 2 -p cbr -e 500 -c 2 -i 26 -a 2 -x {0.0 4.1 26 ------- null}
- -t 0.604 -s 0 -d 2 -p cbr -e 500 -c 2 -i 26 -a 2 -x {0.0 4.1 26 ------- null}
h -t 0.604 -s 0 -d 2 -p cbr -e 500 -c 2 -i 26 -a 2 -x {0.0 4.1 -1 ------- null}
r -t 0.6045 -s 0 -d 2 -p cbr -e 500 -c 2 -i 25 -a 2 -x {0.0 4.1 25 ------- null}
+ -t 0.6045 -s 2 -d 3 -p cbr -e 500 -c 2 -i 25 -a 2 -x {0.0 4.1 25 ------- null}
- -t 0.6045 -s 2 -d 3 -p cbr -e 500 -c 2 -i 25 -a 2 -x {0.0 4.1 25 ------- null}
h -t 0.6045 -s 2 -d 3 -p cbr -e 500 -c 2 -i 25 -a 2 -x {0.0 4.1 -1 ------- null}
r -t 0.6055 -s 3 -d 4 -p cbr -e 500 -c 2 -i 24 -a 2 -x {0.0 4.1 24 ------- null}
r -t 0.607 -s 2 -d 3 -p cbr -e 500 -c 2 -i 25 -a 2 -x {0.0 4.1 25 ------- null}
+ -t 0.607 -s 3 -d 4 -p cbr -e 500 -c 2 -i 25 -a 2 -x {0.0 4.1 25 ------- null}
- -t 0.607 -s 3 -d 4 -p cbr -e 500 -c 2 -i 25 -a 2 -x {0.0 4.1 25 ------- null}
h -t 0.607 -s 3 -d 4 -p cbr -e 500 -c 2 -i 25 -a 2 -x {0.0 4.1 -1 ------- null}
+ -t 0.608 -s 0 -d 2 -p cbr -e 500 -c 2 -i 27 -a 2 -x {0.0 4.1 27 ------- null}
- -t 0.608 -s 0 -d 2 -p cbr -e 500 -c 2 -i 27 -a 2 -x {0.0 4.1 27 ------- null}
h -t 0.608 -s 0 -d 2 -p cbr -e 500 -c 2 -i 27 -a 2 -x {0.0 4.1 -1 ------- null}
r -t 0.6085 -s 0 -d 2 -p cbr -e 500 -c 2 -i 26 -a 2 -x {0.0 4.1 26 ------- null}
+ -t 0.6085 -s 2 -d 3 -p cbr -e 500 -c 2 -i 26 -a 2 -x {0.0 4.1 26 ------- null}
- -t 0.6085 -s 2 -d 3 -p cbr -e 500 -c 2 -i 26 -a 2 -x {0.0 4.1 26 ------- null}
h -t 0.6085 -s 2 -d 3 -p cbr -e 500 -c 2 -i 26 -a 2 -x {0.0 4.1 -1 ------- null}
r -t 0.6095 -s 3 -d 4 -p cbr -e 500 -c 2 -i 25 -a 2 -x {0.0 4.1 25 ------- null}
r -t 0.611 -s 2 -d 3 -p cbr -e 500 -c 2 -i 26 -a 2 -x {0.0 4.1 26 ------- null}
+ -t 0.611 -s 3 -d 4 -p cbr -e 500 -c 2 -i 26 -a 2 -x {0.0 4.1 26 ------- null}
- -t 0.611 -s 3 -d 4 -p cbr -e 500 -c 2 -i 26 -a 2 -x {0.0 4.1 26 ------- null}
h -t 0.611 -s 3 -d 4 -p cbr -e 500 -c 2 -i 26 -a 2 -x {0.0 4.1 -1 ------- null}
+ -t 0.612 -s 0 -d 2 -p cbr -e 500 -c 2 -i 28 -a 2 -x {0.0 4.1 28 ------- null}
- -t 0.612 -s 0 -d 2 -p cbr -e 500 -c 2 -i 28 -a 2 -x {0.0 4.1 28 ------- null}
h -t 0.612 -s 0 -d 2 -p cbr -e 500 -c 2 -i 28 -a 2 -x {0.0 4.1 -1 ------- null}
r -t 0.6125 -s 0 -d 2 -p cbr -e 500 -c 2 -i 27 -a 2 -x {0.0 4.1 27 ------- null}
+ -t 0.6125 -s 2 -d 3 -p cbr -e 500 -c 2 -i 27 -a 2 -x {0.0 4.1 27 ------- null}
- -t 0.6125 -s 2 -d 3 -p cbr -e 500 -c 2 -i 27 -a 2 -x {0.0 4.1 27 ------- null}
h -t 0.6125 -s 2 -d 3 -p cbr -e 500 -c 2 -i 27 -a 2 -x {0.0 4.1 -1 ------- null}
r -t 0.6135 -s 3 -d 4 -p cbr -e 500 -c 2 -i 26 -a 2 -x {0.0 4.1 26 ------- null}
r -t 0.615 -s 2 -d 3 -p cbr -e 500 -c 2 -i 27 -a 2 -x {0.0 4.1 27 ------- null}
+ -t 0.615 -s 3 -d 4 -p cbr -e 500 -c 2 -i 27 -a 2 -x {0.0 4.1 27 ------- null}
- -t 0.615 -s 3 -d 4 -p cbr -e 500 -c 2 -i 27 -a 2 -x {0.0 4.1 27 ------- null}
h -t 0.615 -s 3 -d 4 -p cbr -e 500 -c 2 -i 27 -a 2 -x {0.0 4.1 -1 ------- null}
+ -t 0.616 -s 0 -d 2 -p cbr -e 500 -c 2 -i 29 -a 2 -x {0.0 4.1 29 ------- null}
- -t 0.616 -s 0 -d 2 -p cbr -e 500 -c 2 -i 29 -a 2 -x {0.0 4.1 29 ------- null}
h -t 0.616 -s 0 -d 2 -p cbr -e 500 -c 2 -i 29 -a 2 -x {0.0 4.1 -1 ------- null}
r -t 0.6165 -s 0 -d 2 -p cbr -e 500 -c 2 -i 28 -a 2 -x {0.0 4.1 28 ------- null}
+ -t 0.6165 -s 2 -d 3 -p cbr -e 500 -c 2 -i 28 -a 2 -x {0.0 4.1 28 ------- null}
- -t 0.6165 -s 2 -d 3 -p cbr -e 500 -c 2 -i 28 -a 2 -x {0.0 4.1 28 ------- null}
h -t 0.6165 -s 2 -d 3 -p cbr -e 500 -c 2 -i 28 -a 2 -x {0.0 4.1 -1 ------- null}
r -t 0.6175 -s 3 -d 4 -p cbr -e 500 -c 2 -i 27 -a 2 -x {0.0 4.1 27 ------- null}
r -t 0.619 -s 2 -d 3 -p cbr -e 500 -c 2 -i 28 -a 2 -x {0.0 4.1 28 ------- null}
+ -t 0.619 -s 3 -d 4 -p cbr -e 500 -c 2 -i 28 -a 2 -x {0.0 4.1 28 ------- null}
- -t 0.619 -s 3 -d 4 -p cbr -e 500 -c 2 -i 28 -a 2 -x {0.0 4.1 28 ------- null}
h -t 0.619 -s 3 -d 4 -p cbr -e 500 -c 2 -i 28 -a 2 -x {0.0 4.1 -1 ------- null}
+ -t 0.62 -s 0 -d 2 -p cbr -e 500 -c 2 -i 30 -a 2 -x {0.0 4.1 30 ------- null}
- -t 0.62 -s 0 -d 2 -p cbr -e 500 -c 2 -i 30 -a 2 -x {0.0 4.1 30 ------- null}
h -t 0.62 -s 0 -d 2 -p cbr -e 500 -c 2 -i 30 -a 2 -x {0.0 4.1 -1 ------- null}
r -t 0.6205 -s 0 -d 2 -p cbr -e 500 -c 2 -i 29 -a 2 -x {0.0 4.1 29 ------- null}
+ -t 0.6205 -s 2 -d 3 -p cbr -e 500 -c 2 -i 29 -a 2 -x {0.0 4.1 29 ------- null}
- -t 0.6205 -s 2 -d 3 -p cbr -e 500 -c 2 -i 29 -a 2 -x {0.0 4.1 29 ------- null}
h -t 0.6205 -s 2 -d 3 -p cbr -e 500 -c 2 -i 29 -a 2 -x {0.0 4.1 -1 ------- null}
r -t 0.6215 -s 3 -d 4 -p cbr -e 500 -c 2 -i 28 -a 2 -x {0.0 4.1 28 ------- null}
r -t 0.623 -s 2 -d 3 -p cbr -e 500 -c 2 -i 29 -a 2 -x {0.0 4.1 29 ------- null}
+ -t 0.623 -s 3 -d 4 -p cbr -e 500 -c 2 -i 29 -a 2 -x {0.0 4.1 29 ------- null}
- -t 0.623 -s 3 -d 4 -p cbr -e 500 -c 2 -i 29 -a 2 -x {0.0 4.1 29 ------- null}
h -t 0.623 -s 3 -d 4 -p cbr -e 500 -c 2 -i 29 -a 2 -x {0.0 4.1 -1 ------- null}
+ -t 0.624 -s 0 -d 2 -p cbr -e 500 -c 2 -i 31 -a 2 -x {0.0 4.1 31 ------- null}
- -t 0.624 -s 0 -d 2 -p cbr -e 500 -c 2 -i 31 -a 2 -x {0.0 4.1 31 ------- null}
h -t 0.624 -s 0 -d 2 -p cbr -e 500 -c 2 -i 31 -a 2 -x {0.0 4.1 -1 ------- null}
r -t 0.6245 -s 0 -d 2 -p cbr -e 500 -c 2 -i 30 -a 2 -x {0.0 4.1 30 ------- null}
+ -t 0.6245 -s 2 -d 3 -p cbr -e 500 -c 2 -i 30 -a 2 -x {0.0 4.1 30 ------- null}