+ 0.5 1 2 cbr 1000 ------- 1 1.0 5.0 0 0
- 0.5 1 2 cbr 1000 ------- 1 1.0 5.0 0 0
+ 0.508 1 2 cbr 1000 ------- 1 1.0 5.0 1 1
- 0.508 1 2 cbr 1000 ------- 1 1.0 5.0 1 1
r 0.514 1 2 cbr 1000 ------- 1 1.0 5.0 0 0
+ 0.514 2 3 cbr 1000 ------- 1 1.0 5.0 0 0
- 0.514 2 3 cbr 1000 ------- 1 1.0 5.0 0 0
+ 0.516 1 2 cbr 1000 ------- 1 1.0 5.0 2 2
- 0.516 1 2 cbr 1000 ------- 1 1.0 5.0 2 2
r 0.522 1 2 cbr 1000 ------- 1 1.0 5.0 1 1
+ 0.522 2 3 cbr 1000 ------- 1 1.0 5.0 1 1
- 0.522 2 3 cbr 1000 ------- 1 1.0 5.0 1 1
+ 0.524 1 2 cbr 1000 ------- 1 1.0 5.0 3 3
- 0.524 1 2 cbr 1000 ------- 1 1.0 5.0 3 3
r 0.53 1 2 cbr 1000 ------- 1 1.0 5.0 2 2
+ 0.53 2 3 cbr 1000 ------- 1 1.0 5.0 2 2
- 0.53 2 3 cbr 1000 ------- 1 1.0 5.0 2 2
+ 0.532 1 2 cbr 1000 ------- 1 1.0 5.0 4 4
- 0.532 1 2 cbr 1000 ------- 1 1.0 5.0 4 4
r 0.538 1 2 cbr 1000 ------- 1 1.0 5.0 3 3
+ 0.538 2 3 cbr 1000 ------- 1 1.0 5.0 3 3
- 0.538 2 3 cbr 1000 ------- 1 1.0 5.0 3 3
r 0.538706 2 3 cbr 1000 ------- 1 1.0 5.0 0 0
+ 0.538706 3 5 cbr 1000 ------- 1 1.0 5.0 0 0
- 0.538706 3 5 cbr 1000 ------- 1 1.0 5.0 0 0
+ 0.54 1 2 cbr 1000 ------- 1 1.0 5.0 5 5
- 0.54 1 2 cbr 1000 ------- 1 1.0 5.0 5 5
r 0.546 1 2 cbr 1000 ------- 1 1.0 5.0 4 4
+ 0.546 2 3 cbr 1000 ------- 1 1.0 5.0 4 4
- 0.546 2 3 cbr 1000 ------- 1 1.0 5.0 4 4
r 0.546706 2 3 cbr 1000 ------- 1 1.0 5.0 1 1
+ 0.546706 3 5 cbr 1000 ------- 1 1.0 5.0 1 1
- 0.546706 3 5 cbr 1000 ------- 1 1.0 5.0 1 1
+ 0.548 1 2 cbr 1000 ------- 1 1.0 5.0 6 6
- 0.548 1 2 cbr 1000 ------- 1 1.0 5.0 6 6
r 0.552706 3 5 cbr 1000 ------- 1 1.0 5.0 0 0
r 0.554 1 2 cbr 1000 ------- 1 1.0 5.0 5 5
+ 0.554 2 3 cbr 1000 ------- 1 1.0 5.0 5 5
- 0.554 2 3 cbr 1000 ------- 1 1.0 5.0 5 5
r 0.554706 2 3 cbr 1000 ------- 1 1.0 5.0 2 2
+ 0.554706 3 5 cbr 1000 ------- 1 1.0 5.0 2 2
- 0.554706 3 5 cbr 1000 ------- 1 1.0 5.0 2 2
+ 0.556 1 2 cbr 1000 ------- 1 1.0 5.0 7 7
- 0.556 1 2 cbr 1000 ------- 1 1.0 5.0 7 7
r 0.560706 3 5 cbr 1000 ------- 1 1.0 5.0 1 1
r 0.562 1 2 cbr 1000 ------- 1 1.0 5.0 6 6
+ 0.562 2 3 cbr 1000 ------- 1 1.0 5.0 6 6
- 0.562 2 3 cbr 1000 ------- 1 1.0 5.0 6 6
r 0.562706 2 3 cbr 1000 ------- 1 1.0 5.0 3 3
+ 0.562706 3 5 cbr 1000 ------- 1 1.0 5.0 3 3
- 0.562706 3 5 cbr 1000 ------- 1 1.0 5.0 3 3
+ 0.564 1 2 cbr 1000 ------- 1 1.0 5.0 8 8
- 0.564 1 2 cbr 1000 ------- 1 1.0 5.0 8 8
r 0.568706 3 5 cbr 1000 ------- 1 1.0 5.0 2 2
r 0.57 1 2 cbr 1000 ------- 1 1.0 5.0 7 7
+ 0.57 2 3 cbr 1000 ------- 1 1.0 5.0 7 7
- 0.57 2 3 cbr 1000 ------- 1 1.0 5.0 7 7
r 0.570706 2 3 cbr 1000 ------- 1 1.0 5.0 4 4
+ 0.570706 3 5 cbr 1000 ------- 1 1.0 5.0 4 4
- 0.570706 3 5 cbr 1000 ------- 1 1.0 5.0 4 4
+ 0.572 1 2 cbr 1000 ------- 1 1.0 5.0 9 9
- 0.572 1 2 cbr 1000 ------- 1 1.0 5.0 9 9
r 0.576706 3 5 cbr 1000 ------- 1 1.0 5.0 3 3
r 0.578 1 2 cbr 1000 ------- 1 1.0 5.0 8 8
+ 0.578 2 3 cbr 1000 ------- 1 1.0 5.0 8 8
- 0.578 2 3 cbr 1000 ------- 1 1.0 5.0 8 8
r 0.578706 2 3 cbr 1000 ------- 1 1.0 5.0 5 5
+ 0.578706 3 5 cbr 1000 ------- 1 1.0 5.0 5 5
- 0.578706 3 5 cbr 1000 ------- 1 1.0 5.0 5 5
+ 0.58 1 2 cbr 1000 ------- 1 1.0 5.0 10 10
- 0.58 1 2 cbr 1000 ------- 1 1.0 5.0 10 10
r 0.584706 3 5 cbr 1000 ------- 1 1.0 5.0 4 4
r 0.586 1 2 cbr 1000 ------- 1 1.0 5.0 9 9
+ 0.586 2 3 cbr 1000 ------- 1 1.0 5.0 9 9
- 0.586 2 3 cbr 1000 ------- 1 1.0 5.0 9 9
r 0.586706 2 3 cbr 1000 ------- 1 1.0 5.0 6 6
+ 0.586706 3 5 cbr 1000 ------- 1 1.0 5.0 6 6
- 0.586706 3 5 cbr 1000 ------- 1 1.0 5.0 6 6
+ 0.588 1 2 cbr 1000 ------- 1 1.0 5.0 11 11
- 0.588 1 2 cbr 1000 ------- 1 1.0 5.0 11 11
r 0.592706 3 5 cbr 1000 ------- 1 1.0 5.0 5 5
r 0.594 1 2 cbr 1000 ------- 1 1.0 5.0 10 10
+ 0.594 2 3 cbr 1000 ------- 1 1.0 5.0 10 10
- 0.594 2 3 cbr 1000 ------- 1 1.0 5.0 10 10
r 0.594706 2 3 cbr 1000 ------- 1 1.0 5.0 7 7
+ 0.594706 3 5 cbr 1000 ------- 1 1.0 5.0 7 7
- 0.594706 3 5 cbr 1000 ------- 1 1.0 5.0 7 7
+ 0.596 1 2 cbr 1000 ------- 1 1.0 5.0 12 12
- 0.596 1 2 cbr 1000 ------- 1 1.0 5.0 12 12
r 0.600706 3 5 cbr 1000 ------- 1 1.0 5.0 6 6
r 0.602 1 2 cbr 1000 ------- 1 1.0 5.0 11 11
+ 0.602 2 3 cbr 1000 ------- 1 1.0 5.0 11 11
- 0.602 2 3 cbr 1000 ------- 1 1.0 5.0 11 11
r 0.602706 2 3 cbr 1000 ------- 1 1.0 5.0 8 8
+ 0.602706 3 5 cbr 1000 ------- 1 1.0 5.0 8 8
- 0.602706 3 5 cbr 1000 ------- 1 1.0 5.0 8 8
+ 0.604 1 2 cbr 1000 ------- 1 1.0 5.0 13 13
- 0.604 1 2 cbr 1000 ------- 1 1.0 5.0 13 13
r 0.608706 3 5 cbr 1000 ------- 1 1.0 5.0 7 7
r 0.61 1 2 cbr 1000 ------- 1 1.0 5.0 12 12
+ 0.61 2 3 cbr 1000 ------- 1 1.0 5.0 12 12
- 0.61 2 3 cbr 1000 ------- 1 1.0 5.0 12 12
r 0.610706 2 3 cbr 1000 ------- 1 1.0 5.0 9 9
+ 0.610706 3 5 cbr 1000 ------- 1 1.0 5.0 9 9
- 0.610706 3 5 cbr 1000 ------- 1 1.0 5.0 9 9
+ 0.612 1 2 cbr 1000 ------- 1 1.0 5.0 14 14
- 0.612 1 2 cbr 1000 ------- 1 1.0 5.0 14 14
r 0.616706 3 5 cbr 1000 ------- 1 1.0 5.0 8 8
r 0.618 1 2 cbr 1000 ------- 1 1.0 5.0 13 13
+ 0.618 2 3 cbr 1000 ------- 1 1.0 5.0 13 13
- 0.618 2 3 cbr 1000 ------- 1 1.0 5.0 13 13
r 0.618706 2 3 cbr 1000 ------- 1 1.0 5.0 10 10
+ 0.618706 3 5 cbr 1000 ------- 1 1.0 5.0 10 10
- 0.618706 3 5 cbr 1000 ------- 1 1.0 5.0 10 10
+ 0.62 1 2 cbr 1000 ------- 1 1.0 5.0 15 15
- 0.62 1 2 cbr 1000 ------- 1 1.0 5.0 15 15
r 0.624706 3 5 cbr 1000 ------- 1 1.0 5.0 9 9
r 0.626 1 2 cbr 1000 ------- 1 1.0 5.0 14 14
+ 0.626 2 3 cbr 1000 ------- 1 1.0 5.0 14 14
- 0.626 2 3 cbr 1000 ------- 1 1.0 5.0 14 14
r 0.626706 2 3 cbr 1000 ------- 1 1.0 5.0 11 11
+ 0.626706 3 5 cbr 1000 ------- 1 1.0 5.0 11 11
- 0.626706 3 5 cbr 1000 ------- 1 1.0 5.0 11 11
+ 0.628 1 2 cbr 1000 ------- 1 1.0 5.0 16 16
- 0.628 1 2 cbr 1000 ------- 1 1.0 5.0 16 16
r 0.632706 3 5 cbr 1000 ------- 1 1.0 5.0 10 10
r 0.634 1 2 cbr 1000 ------- 1 1.0 5.0 15 15
+ 0.634 2 3 cbr 1000 ------- 1 1.0 5.0 15 15
- 0.634 2 3 cbr 1000 ------- 1 1.0 5.0 15 15
r 0.634706 2 3 cbr 1000 ------- 1 1.0 5.0 12 12
+ 0.634706 3 5 cbr 1000 ------- 1 1.0 5.0 12 12
- 0.634706 3 5 cbr 1000 ------- 1 1.0 5.0 12 12
+ 0.636 1 2 cbr 1000 ------- 1 1.0 5.0 17 17
- 0.636 1 2 cbr 1000 ------- 1 1.0 5.0 17 17
r 0.640706 3 5 cbr 1000 ------- 1 1.0 5.0 11 11
r 0.642 1 2 cbr 1000 ------- 1 1.0 5.0 16 16
+ 0.642 2 3 cbr 1000 ------- 1 1.0 5.0 16 16
- 0.642 2 3 cbr 1000 ------- 1 1.0 5.0 16 16
r 0.642706 2 3 cbr 1000 ------- 1 1.0 5.0 13 13
+ 0.642706 3 5 cbr 1000 ------- 1 1.0 5.0 13 13
- 0.642706 3 5 cbr 1000 ------- 1 1.0 5.0 13 13
+ 0.644 1 2 cbr 1000 ------- 1 1.0 5.0 18 18
- 0.644 1 2 cbr 1000 ------- 1 1.0 5.0 18 18
r 0.648706 3 5 cbr 1000 ------- 1 1.0 5.0 12 12
r 0.65 1 2 cbr 1000 ------- 1 1.0 5.0 17 17
+ 0.65 2 3 cbr 1000 ------- 1 1.0 5.0 17 17
- 0.65 2 3 cbr 1000 ------- 1 1.0 5.0 17 17
r 0.650706 2 3 cbr 1000 ------- 1 1.0 5.0 14 14
+ 0.650706 3 5 cbr 1000 ------- 1 1.0 5.0 14 14
- 0.650706 3 5 cbr 1000 ------- 1 1.0 5.0 14 14
+ 0.652 1 2 cbr 1000 ------- 1 1.0 5.0 19 19
- 0.652 1 2 cbr 1000 ------- 1 1.0 5.0 19 19
r 0.656706 3 5 cbr 1000 ------- 1 1.0 5.0 13 13
r 0.658 1 2 cbr 1000 ------- 1 1.0 5.0 18 18
+ 0.658 2 3 cbr 1000 ------- 1 1.0 5.0 18 18
- 0.658 2 3 cbr 1000 ------- 1 1.0 5.0 18 18
r 0.658706 2 3 cbr 1000 ------- 1 1.0 5.0 15 15
+ 0.658706 3 5 cbr 1000 ------- 1 1.0 5.0 15 15
- 0.658706 3 5 cbr 1000 ------- 1 1.0 5.0 15 15
+ 0.66 1 2 cbr 1000 ------- 1 1.0 5.0 20 20
- 0.66 1 2 cbr 1000 ------- 1 1.0 5.0 20 20
r 0.664706 3 5 cbr 1000 ------- 1 1.0 5.0 14 14
r 0.666 1 2 cbr 1000 ------- 1 1.0 5.0 19 19
+ 0.666 2 3 cbr 1000 ------- 1 1.0 5.0 19 19
- 0.666 2 3 cbr 1000 ------- 1 1.0 5.0 19 19
r 0.666706 2 3 cbr 1000 ------- 1 1.0 5.0 16 16
+ 0.666706 3 5 cbr 1000 ------- 1 1.0 5.0 16 16
- 0.666706 3 5 cbr 1000 ------- 1 1.0 5.0 16 16
+ 0.668 1 2 cbr 1000 ------- 1 1.0 5.0 21 21
- 0.668 1 2 cbr 1000 ------- 1 1.0 5.0 21 21
r 0.672706 3 5 cbr 1000 ------- 1 1.0 5.0 15 15
r 0.674 1 2 cbr 1000 ------- 1 1.0 5.0 20 20
+ 0.674 2 3 cbr 1000 ------- 1 1.0 5.0 20 20
- 0.674 2 3 cbr 1000 ------- 1 1.0 5.0 20 20
r 0.674706 2 3 cbr 1000 ------- 1 1.0 5.0 17 17
+ 0.674706 3 5 cbr 1000 ------- 1 1.0 5.0 17 17
- 0.674706 3 5 cbr 1000 ------- 1 1.0 5.0 17 17
+ 0.676 1 2 cbr 1000 ------- 1 1.0 5.0 22 22
- 0.676 1 2 cbr 1000 ------- 1 1.0 5.0 22 22
r 0.680706 3 5 cbr 1000 ------- 1 1.0 5.0 16 16
r 0.682 1 2 cbr 1000 ------- 1 1.0 5.0 21 21
+ 0.682 2 3 cbr 1000 ------- 1 1.0 5.0 21 21
- 0.682 2 3 cbr 1000 ------- 1 1.0 5.0 21 21
r 0.682706 2 3 cbr 1000 ------- 1 1.0 5.0 18 18
+ 0.682706 3 5 cbr 1000 ------- 1 1.0 5.0 18 18
- 0.682706 3 5 cbr 1000 ------- 1 1.0 5.0 18 18
+ 0.684 1 2 cbr 1000 ------- 1 1.0 5.0 23 23
- 0.684 1 2 cbr 1000 ------- 1 1.0 5.0 23 23
r 0.688706 3 5 cbr 1000 ------- 1 1.0 5.0 17 17
r 0.69 1 2 cbr 1000 ------- 1 1.0 5.0 22 22
+ 0.69 2 3 cbr 1000 ------- 1 1.0 5.0 22 22
- 0.69 2 3 cbr 1000 ------- 1 1.0 5.0 22 22
r 0.690706 2 3 cbr 1000 ------- 1 1.0 5.0 19 19
+ 0.690706 3 5 cbr 1000 ------- 1 1.0 5.0 19 19
- 0.690706 3 5 cbr 1000 ------- 1 1.0 5.0 19 19
+ 0.692 1 2 cbr 1000 ------- 1 1.0 5.0 24 24
- 0.692 1 2 cbr 1000 ------- 1 1.0 5.0 24 24
r 0.696706 3 5 cbr 1000 ------- 1 1.0 5.0 18 18
r 0.698 1 2 cbr 1000 ------- 1 1.0 5.0 23 23
+ 0.698 2 3 cbr 1000 ------- 1 1.0 5.0 23 23
- 0.698 2 3 cbr 1000 ------- 1 1.0 5.0 23 23
r 0.698706 2 3 cbr 1000 ------- 1 1.0 5.0 20 20
+ 0.698706 3 5 cbr 1000 ------- 1 1.0 5.0 20 20
- 0.698706 3 5 cbr 1000 ------- 1 1.0 5.0 20 20
+ 0.7 1 2 cbr 1000 ------- 1 1.0 5.0 25 25
- 0.7 1 2 cbr 1000 ------- 1 1.0 5.0 25 25
r 0.704706 3 5 cbr 1000 ------- 1 1.0 5.0 19 19
r 0.706 1 2 cbr 1000 ------- 1 1.0 5.0 24 24
+ 0.706 2 3 cbr 1000 ------- 1 1.0 5.0 24 24
- 0.706 2 3 cbr 1000 ------- 1 1.0 5.0 24 24
r 0.706706 2 3 cbr 1000 ------- 1 1.0 5.0 21 21
+ 0.706706 3 5 cbr 1000 ------- 1 1.0 5.0 21 21
- 0.706706 3 5 cbr 1000 ------- 1 1.0 5.0 21 21
+ 0.708 1 2 cbr 1000 ------- 1 1.0 5.0 26 26
- 0.708 1 2 cbr 1000 ------- 1 1.0 5.0 26 26
r 0.712706 3 5 cbr 1000 ------- 1 1.0 5.0 20 20
r 0.714 1 2 cbr 1000 ------- 1 1.0 5.0 25 25
+ 0.714 2 3 cbr 1000 ------- 1 1.0 5.0 25 25
- 0.714 2 3 cbr 1000 ------- 1 1.0 5.0 25 25
r 0.714706 2 3 cbr 1000 ------- 1 1.0 5.0 22 22
+ 0.714706 3 5 cbr 1000 ------- 1 1.0 5.0 22 22
- 0.714706 3 5 cbr 1000 ------- 1 1.0 5.0 22 22
+ 0.716 1 2 cbr 1000 ------- 1 1.0 5.0 27 27
- 0.716 1 2 cbr 1000 ------- 1 1.0 5.0 27 27
r 0.720706 3 5 cbr 1000 ------- 1 1.0 5.0 21 21
r 0.722 1 2 cbr 1000 ------- 1 1.0 5.0 26 26
+ 0.722 2 3 cbr 1000 ------- 1 1.0 5.0 26 26
- 0.722 2 3 cbr 1000 ------- 1 1.0 5.0 26 26
r 0.722706 2 3 cbr 1000 ------- 1 1.0 5.0 23 23
+ 0.722706 3 5 cbr 1000 ------- 1 1.0 5.0 23 23
- 0.722706 3 5 cbr 1000 ------- 1 1.0 5.0 23 23
+ 0.724 1 2 cbr 1000 ------- 1 1.0 5.0 28 28
- 0.724 1 2 cbr 1000 ------- 1 1.0 5.0 28 28
r 0.728706 3 5 cbr 1000 ------- 1 1.0 5.0 22 22
r 0.73 1 2 cbr 1000 ------- 1 1.0 5.0 27 27
+ 0.73 2 3 cbr 1000 ------- 1 1.0 5.0 27 27
- 0.73 2 3 cbr 1000 ------- 1 1.0 5.0 27 27
r 0.730706 2 3 cbr 1000 ------- 1 1.0 5.0 24 24
+ 0.730706 3 5 cbr 1000 ------- 1 1.0 5.0 24 24
- 0.730706 3 5 cbr 1000 ------- 1 1.0 5.0 24 24
+ 0.732 1 2 cbr 1000 ------- 1 1.0 5.0 29 29
- 0.732 1 2 cbr 1000 ------- 1 1.0 5.0 29 29
r 0.736706 3 5 cbr 1000 ------- 1 1.0 5.0 23 23
r 0.738 1 2 cbr 1000 ------- 1 1.0 5.0 28 28
+ 0.738 2 3 cbr 1000 ------- 1 1.0 5.0 28 28
- 0.738 2 3 cbr 1000 ------- 1 1.0 5.0 28 28
r 0.738706 2 3 cbr 1000 ------- 1 1.0 5.0 25 25
+ 0.738706 3 5 cbr 1000 ------- 1 1.0 5.0 25 25
- 0.738706 3 5 cbr 1000 ------- 1 1.0 5.0 25 25
+ 0.74 1 2 cbr 1000 ------- 1 1.0 5.0 30 30
- 0.74 1 2 cbr 1000 ------- 1 1.0 5.0 30 30
r 0.744706 3 5 cbr 1000 ------- 1 1.0 5.0 24 24
r 0.746 1 2 cbr 1000 ------- 1 1.0 5.0 29 29
+ 0.746 2 3 cbr 1000 ------- 1 1.0 5.0 29 29
- 0.746 2 3 cbr 1000 ------- 1 1.0 5.0 29 29
r 0.746706 2 3 cbr 1000 ------- 1 1.0 5.0 26 26
+ 0.746706 3 5 cbr 1000 ------- 1 1.0 5.0 26 26
- 0.746706 3 5 cbr 1000 ------- 1 1.0 5.0 26 26
+ 0.748 1 2 cbr 1000 ------- 1 1.0 5.0 31 31
- 0.748 1 2 cbr 1000 ------- 1 1.0 5.0 31 31
r 0.752706 3 5 cbr 1000 ------- 1 1.0 5.0 25 25
r 0.754 1 2 cbr 1000 ------- 1 1.0 5.0 30 30
+ 0.754 2 3 cbr 1000 ------- 1 1.0 5.0 30 30
- 0.754 2 3 cbr 1000 ------- 1 1.0 5.0 30 30
r 0.754706 2 3 cbr 1000 ------- 1 1.0 5.0 27 27
+ 0.754706 3 5 cbr 1000 ------- 1 1.0 5.0 27 27
- 0.754706 3 5 cbr 1000 ------- 1 1.0 5.0 27 27
+ 0.756 1 2 cbr 1000 ------- 1 1.0 5.0 32 32
- 0.756 1 2 cbr 1000 ------- 1 1.0 5.0 32 32
r 0.760706 3 5 cbr 1000 ------- 1 1.0 5.0 26 26
r 0.762 1 2 cbr 1000 ------- 1 1.0 5.0 31 31
+ 0.762 2 3 cbr 1000 ------- 1 1.0 5.0 31 31
- 0.762 2 3 cbr 1000 ------- 1 1.0 5.0 31 31
r 0.762706 2 3 cbr 1000 ------- 1 1.0 5.0 28 28
+ 0.762706 3 5 cbr 1000 ------- 1 1.0 5.0 28 28
- 0.762706 3 5 cbr 1000 ------- 1 1.0 5.0 28 28
+ 0.764 1 2 cbr 1000 ------- 1 1.0 5.0 33 33
- 0.764 1 2 cbr 1000 ------- 1 1.0 5.0 33 33
r 0.768706 3 5 cbr 1000 ------- 1 1.0 5.0 27 27
r 0.77 1 2 cbr 1000 ------- 1 1.0 5.0 32 32
+ 0.77 2 3 cbr 1000 ------- 1 1.0 5.0 32 32
- 0.77 2 3 cbr 1000 ------- 1 1.0 5.0 32 32
r 0.770706 2 3 cbr 1000 ------- 1 1.0 5.0 29 29
+ 0.770706 3 5 cbr 1000 ------- 1 1.0 5.0 29 29
- 0.770706 3 5 cbr 1000 ------- 1 1.0 5.0 29 29
+ 0.772 1 2 cbr 1000 ------- 1 1.0 5.0 34 34
- 0.772 1 2 cbr 1000 ------- 1 1.0 5.0 34 34
r 0.776706 3 5 cbr 1000 ------- 1 1.0 5.0 28 28
r 0.778 1 2 cbr 1000 ------- 1 1.0 5.0 33 33
+ 0.778 2 3 cbr 1000 ------- 1 1.0 5.0 33 33
- 0.778 2 3 cbr 1000 ------- 1 1.0 5.0 33 33
r 0.778706 2 3 cbr 1000 ------- 1 1.0 5.0 30 30
+ 0.778706 3 5 cbr 1000 ------- 1 1.0 5.0 30 30
- 0.778706 3 5 cbr 1000 ------- 1 1.0 5.0 30 30
+ 0.78 1 2 cbr 1000 ------- 1 1.0 5.0 35 35
- 0.78 1 2 cbr 1000 ------- 1 1.0 5.0 35 35
r 0.784706 3 5 cbr 1000 ------- 1 1.0 5.0 29 29
r 0.786 1 2 cbr 1000 ------- 1 1.0 5.0 34 34
+ 0.786 2 3 cbr 1000 ------- 1 1.0 5.0 34 34
- 0.786 2 3 cbr 1000 ------- 1 1.0 5.0 34 34
r 0.786706 2 3 cbr 1000 ------- 1 1.0 5.0 31 31
+ 0.786706 3 5 cbr 1000 ------- 1 1.0 5.0 31 31
- 0.786706 3 5 cbr 1000 ------- 1 1.0 5.0 31 31
+ 0.788 1 2 cbr 1000 ------- 1 1.0 5.0 36 36
- 0.788 1 2 cbr 1000 ------- 1 1.0 5.0 36 36
r 0.792706 3 5 cbr 1000 ------- 1 1.0 5.0 30 30
r 0.794 1 2 cbr 1000 ------- 1 1.0 5.0 35 35
+ 0.794 2 3 cbr 1000 ------- 1 1.0 5.0 35 35
- 0.794 2 3 cbr 1000 ------- 1 1.0 5.0 35 35
r 0.794706 2 3 cbr 1000 ------- 1 1.0 5.0 32 32
+ 0.794706 3 5 cbr 1000 ------- 1 1.0 5.0 32 32
- 0.794706 3 5 cbr 1000 ------- 1 1.0 5.0 32 32
+ 0.796 1 2 cbr 1000 ------- 1 1.0 5.0 37 37
- 0.796 1 2 cbr 1000 ------- 1 1.0 5.0 37 37
r 0.800706 3 5 cbr 1000 ------- 1 1.0 5.0 31 31
r 0.802 1 2 cbr 1000 ------- 1 1.0 5.0 36 36
+ 0.802 2 3 cbr 1000 ------- 1 1.0 5.0 36 36
- 0.802 2 3 cbr 1000 ------- 1 1.0 5.0 36 36
r 0.802706 2 3 cbr 1000 ------- 1 1.0 5.0 33 33
+ 0.802706 3 5 cbr 1000 ------- 1 1.0 5.0 33 33
- 0.802706 3 5 cbr 1000 ------- 1 1.0 5.0 33 33
+ 0.804 1 2 cbr 1000 ------- 1 1.0 5.0 38 38
- 0.804 1 2 cbr 1000 ------- 1 1.0 5.0 38 38
r 0.808706 3 5 cbr 1000 ------- 1 1.0 5.0 32 32
r 0.81 1 2 cbr 1000 ------- 1 1.0 5.0 37 37
+ 0.81 2 3 cbr 1000 ------- 1 1.0 5.0 37 37
- 0.81 2 3 cbr 1000 ------- 1 1.0 5.0 37 37
r 0.810706 2 3 cbr 1000 ------- 1 1.0 5.0 34 34
+ 0.810706 3 5 cbr 1000 ------- 1 1.0 5.0 34 34
- 0.810706 3 5 cbr 1000 ------- 1 1.0 5.0 34 34
+ 0.812 1 2 cbr 1000 ------- 1 1.0 5.0 39 39
- 0.812 1 2 cbr 1000 ------- 1 1.0 5.0 39 39
r 0.816706 3 5 cbr 1000 ------- 1 1.0 5.0 33 33
r 0.818 1 2 cbr 1000 ------- 1 1.0 5.0 38 38
+ 0.818 2 3 cbr 1000 ------- 1 1.0 5.0 38 38
- 0.818 2 3 cbr 1000 ------- 1 1.0 5.0 38 38
r 0.818706 2 3 cbr 1000 ------- 1 1.0 5.0 35 35
+ 0.818706 3 5 cbr 1000 ------- 1 1.0 5.0 35 35
- 0.818706 3 5 cbr 1000 ------- 1 1.0 5.0 35 35
+ 0.82 1 2 cbr 1000 ------- 1 1.0 5.0 40 40
- 0.82 1 2 cbr 1000 ------- 1 1.0 5.0 40 40
r 0.824706 3 5 cbr 1000 ------- 1 1.0 5.0 34 34
r 0.826 1 2 cbr 1000 ------- 1 1.0 5.0 39 39
+ 0.826 2 3 cbr 1000 ------- 1 1.0 5.0 39 39
- 0.826 2 3 cbr 1000 ------- 1 1.0 5.0 39 39
r 0.826706 2 3 cbr 1000 ------- 1 1.0 5.0 36 36
+ 0.826706 3 5 cbr 1000 ------- 1 1.0 5.0 36 36
- 0.826706 3 5 cbr 1000 ------- 1 1.0 5.0 36 36
+ 0.828 1 2 cbr 1000 ------- 1 1.0 5.0 41 41
- 0.828 1 2 cbr 1000 ------- 1 1.0 5.0 41 41
r 0.832706 3 5 cbr 1000 ------- 1 1.0 5.0 35 35
r 0.834 1 2 cbr 1000 ------- 1 1.0 5.0 40 40
+ 0.834 2 3 cbr 1000 ------- 1 1.0 5.0 40 40
- 0.834 2 3 cbr 1000 ------- 1 1.0 5.0 40 40
r 0.834706 2 3 cbr 1000 ------- 1 1.0 5.0 37 37
+ 0.834706 3 5 cbr 1000 ------- 1 1.0 5.0 37 37
- 0.834706 3 5 cbr 1000 ------- 1 1.0 5.0 37 37
+ 0.836 1 2 cbr 1000 ------- 1 1.0 5.0 42 42
- 0.836 1 2 cbr 1000 ------- 1 1.0 5.0 42 42
r 0.840706 3 5 cbr 1000 ------- 1 1.0 5.0 36 36
r 0.842 1 2 cbr 1000 ------- 1 1.0 5.0 41 41
+ 0.842 2 3 cbr 1000 ------- 1 1.0 5.0 41 41
- 0.842 2 3 cbr 1000 ------- 1 1.0 5.0 41 41
r 0.842706 2 3 cbr 1000 ------- 1 1.0 5.0 38 38
+ 0.842706 3 5 cbr 1000 ------- 1 1.0 5.0 38 38
- 0.842706 3 5 cbr 1000 ------- 1 1.0 5.0 38 38
+ 0.844 1 2 cbr 1000 ------- 1 1.0 5.0 43 43
- 0.844 1 2 cbr 1000 ------- 1 1.0 5.0 43 43
r 0.848706 3 5 cbr 1000 ------- 1 1.0 5.0 37 37
r 0.85 1 2 cbr 1000 ------- 1 1.0 5.0 42 42
+ 0.85 2 3 cbr 1000 ------- 1 1.0 5.0 42 42
- 0.85 2 3 cbr 1000 ------- 1 1.0 5.0 42 42
r 0.850706 2 3 cbr 1000 ------- 1 1.0 5.0 39 39
+ 0.850706 3 5 cbr 1000 ------- 1 1.0 5.0 39 39
- 0.850706 3 5 cbr 1000 ------- 1 1.0 5.0 39 39
+ 0.852 1 2 cbr 1000 ------- 1 1.0 5.0 44 44
- 0.852 1 2 cbr 1000 ------- 1 1.0 5.0 44 44
r 0.856706 3 5 cbr 1000 ------- 1 1.0 5.0 38 38
r 0.858 1 2 cbr 1000 ------- 1 1.0 5.0 43 43
+ 0.858 2 3 cbr 1000 ------- 1 1.0 5.0 43 43
- 0.858 2 3 cbr 1000 ------- 1 1.0 5.0 43 43
r 0.858706 2 3 cbr 1000 ------- 1 1.0 5.0 40 40
+ 0.858706 3 5 cbr 1000 ------- 1 1.0 5.0 40 40
- 0.858706 3 5 cbr 1000 ------- 1 1.0 5.0 40 40
+ 0.86 1 2 cbr 1000 ------- 1 1.0 5.0 45 45
- 0.86 1 2 cbr 1000 ------- 1 1.0 5.0 45 45
r 0.864706 3 5 cbr 1000 ------- 1 1.0 5.0 39 39
r 0.866 1 2 cbr 1000 ------- 1 1.0 5.0 44 44
+ 0.866 2 3 cbr 1000 ------- 1 1.0 5.0 44 44
- 0.866 2 3 cbr 1000 ------- 1 1.0 5.0 44 44
r 0.866706 2 3 cbr 1000 ------- 1 1.0 5.0 41 41
+ 0.866706 3 5 cbr 1000 ------- 1 1.0 5.0 41 41
- 0.866706 3 5 cbr 1000 ------- 1 1.0 5.0 41 41
+ 0.868 1 2 cbr 1000 ------- 1 1.0 5.0 46 46
- 0.868 1 2 cbr 1000 ------- 1 1.0 5.0 46 46
r 0.872706 3 5 cbr 1000 ------- 1 1.0 5.0 40 40
r 0.874 1 2 cbr 1000 ------- 1 1.0 5.0 45 45
+ 0.874 2 3 cbr 1000 ------- 1 1.0 5.0 45 45
- 0.874 2 3 cbr 1000 ------- 1 1.0 5.0 45 45
r 0.874706 2 3 cbr 1000 ------- 1 1.0 5.0 42 42
+ 0.874706 3 5 cbr 1000 ------- 1 1.0 5.0 42 42
- 0.874706 3 5 cbr 1000 ------- 1 1.0 5.0 42 42
+ 0.876 1 2 cbr 1000 ------- 1 1.0 5.0 47 47
- 0.876 1 2 cbr 1000 ------- 1 1.0 5.0 47 47
r 0.880706 3 5 cbr 1000 ------- 1 1.0 5.0 41 41
r 0.882 1 2 cbr 1000 ------- 1 1.0 5.0 46 46
+ 0.882 2 3 cbr 1000 ------- 1 1.0 5.0 46 46
- 0.882 2 3 cbr 1000 ------- 1 1.0 5.0 46 46
r 0.882706 2 3 cbr 1000 ------- 1 1.0 5.0 43 43
+ 0.882706 3 5 cbr 1000 ------- 1 1.0 5.0 43 43
- 0.882706 3 5 cbr 1000 ------- 1 1.0 5.0 43 43
+ 0.884 1 2 cbr 1000 ------- 1 1.0 5.0 48 48
- 0.884 1 2 cbr 1000 ------- 1 1.0 5.0 48 48
r 0.888706 3 5 cbr 1000 ------- 1 1.0 5.0 42 42
r 0.89 1 2 cbr 1000 ------- 1 1.0 5.0 47 47
+ 0.89 2 3 cbr 1000 ------- 1 1.0 5.0 47 47
- 0.89 2 3 cbr 1000 ------- 1 1.0 5.0 47 47
r 0.890706 2 3 cbr 1000 ------- 1 1.0 5.0 44 44
+ 0.890706 3 5 cbr 1000 ------- 1 1.0 5.0 44 44
- 0.890706 3 5 cbr 1000 ------- 1 1.0 5.0 44 44
+ 0.892 1 2 cbr 1000 ------- 1 1.0 5.0 49 49
- 0.892 1 2 cbr 1000 ------- 1 1.0 5.0 49 49
r 0.896706 3 5 cbr 1000 ------- 1 1.0 5.0 43 43
r 0.898 1 2 cbr 1000 ------- 1 1.0 5.0 48 48
+ 0.898 2 3 cbr 1000 ------- 1 1.0 5.0 48 48
- 0.898 2 3 cbr 1000 ------- 1 1.0 5.0 48 48
r 0.898706 2 3 cbr 1000 ------- 1 1.0 5.0 45 45
+ 0.898706 3 5 cbr 1000 ------- 1 1.0 5.0 45 45
- 0.898706 3 5 cbr 1000 ------- 1 1.0 5.0 45 45
+ 0.9 1 2 cbr 1000 ------- 1 1.0 5.0 50 50
- 0.9 1 2 cbr 1000 ------- 1 1.0 5.0 50 50
r 0.904706 3 5 cbr 1000 ------- 1 1.0 5.0 44 44
r 0.906 1 2 cbr 1000 ------- 1 1.0 5.0 49 49
+ 0.906 2 3 cbr 1000 ------- 1 1.0 5.0 49 49
- 0.906 2 3 cbr 1000 ------- 1 1.0 5.0 49 49
r 0.906706 2 3 cbr 1000 ------- 1 1.0 5.0 46 46
+ 0.906706 3 5 cbr 1000 ------- 1 1.0 5.0 46 46
- 0.906706 3 5 cbr 1000 ------- 1 1.0 5.0 46 46
+ 0.908 1 2 cbr 1000 ------- 1 1.0 5.0 51 51
- 0.908 1 2 cbr 1000 ------- 1 1.0 5.0 51 51
r 0.912706 3 5 cbr 1000 ------- 1 1.0 5.0 45 45
r 0.914 1 2 cbr 1000 ------- 1 1.0 5.0 50 50
+ 0.914 2 3 cbr 1000 ------- 1 1.0 5.0 50 50
- 0.914 2 3 cbr 1000 ------- 1 1.0 5.0 50 50
r 0.914706 2 3 cbr 1000 ------- 1 1.0 5.0 47 47
+ 0.914706 3 5 cbr 1000 ------- 1 1.0 5.0 47 47
- 0.914706 3 5 cbr 1000 ------- 1 1.0 5.0 47 47
+ 0.916 1 2 cbr 1000 ------- 1 1.0 5.0 52 52
- 0.916 1 2 cbr 1000 ------- 1 1.0 5.0 52 52
r 0.920706 3 5 cbr 1000 ------- 1 1.0 5.0 46 46
r 0.922 1 2 cbr 1000 ------- 1 1.0 5.0 51 51
+ 0.922 2 3 cbr 1000 ------- 1 1.0 5.0 51 51
- 0.922 2 3 cbr 1000 ------- 1 1.0 5.0 51 51
r 0.922706 2 3 cbr 1000 ------- 1 1.0 5.0 48 48
+ 0.922706 3 5 cbr 1000 ------- 1 1.0 5.0 48 48
- 0.922706 3 5 cbr 1000 ------- 1 1.0 5.0 48 48
+ 0.924 1 2 cbr 1000 ------- 1 1.0 5.0 53 53
- 0.924 1 2 cbr 1000 ------- 1 1.0 5.0 53 53
r 0.928706 3 5 cbr 1000 ------- 1 1.0 5.0 47 47
r 0.93 1 2 cbr 1000 ------- 1 1.0 5.0 52 52
+ 0.93 2 3 cbr 1000 ------- 1 1.0 5.0 52 52
- 0.93 2 3 cbr 1000 ------- 1 1.0 5.0 52 52
r 0.930706 2 3 cbr 1000 ------- 1 1.0 5.0 49 49
+ 0.930706 3 5 cbr 1000 ------- 1 1.0 5.0 49 49
- 0.930706 3 5 cbr 1000 ------- 1 1.0 5.0 49 49
+ 0.932 1 2 cbr 1000 ------- 1 1.0 5.0 54 54
- 0.932 1 2 cbr 1000 ------- 1 1.0 5.0 54 54
r 0.936706 3 5 cbr 1000 ------- 1 1.0 5.0 48 48
r 0.938 1 2 cbr 1000 ------- 1 1.0 5.0 53 53
+ 0.938 2 3 cbr 1000 ------- 1 1.0 5.0 53 53
- 0.938 2 3 cbr 1000 ------- 1 1.0 5.0 53 53
r 0.938706 2 3 cbr 1000 ------- 1 1.0 5.0 50 50
+ 0.938706 3 5 cbr 1000 ------- 1 1.0 5.0 50 50
- 0.938706 3 5 cbr 1000 ------- 1 1.0 5.0 50 50
+ 0.94 1 2 cbr 1000 ------- 1 1.0 5.0 55 55
- 0.94 1 2 cbr 1000 ------- 1 1.0 5.0 55 55
r 0.944706 3 5 cbr 1000 ------- 1 1.0 5.0 49 49
r 0.946 1 2 cbr 1000 ------- 1 1.0 5.0 54 54
+ 0.946 2 3 cbr 1000 ------- 1 1.0 5.0 54 54
- 0.946 2 3 cbr 1000 ------- 1 1.0 5.0 54 54
r 0.946706 2 3 cbr 1000 ------- 1 1.0 5.0 51 51
+ 0.946706 3 5 cbr 1000 ------- 1 1.0 5.0 51 51
- 0.946706 3 5 cbr 1000 ------- 1 1.0 5.0 51 51
+ 0.948 1 2 cbr 1000 ------- 1 1.0 5.0 56 56
- 0.948 1 2 cbr 1000 ------- 1 1.0 5.0 56 56
r 0.952706 3 5 cbr 1000 ------- 1 1.0 5.0 50 50
r 0.954 1 2 cbr 1000 ------- 1 1.0 5.0 55 55
+ 0.954 2 3 cbr 1000 ------- 1 1.0 5.0 55 55
- 0.954 2 3 cbr 1000 ------- 1 1.0 5.0 55 55
r 0.954706 2 3 cbr 1000 ------- 1 1.0 5.0 52 52
+ 0.954706 3 5 cbr 1000 ------- 1 1.0 5.0 52 52
- 0.954706 3 5 cbr 1000 ------- 1 1.0 5.0 52 52
+ 0.956 1 2 cbr 1000 ------- 1 1.0 5.0 57 57
- 0.956 1 2 cbr 1000 ------- 1 1.0 5.0 57 57
r 0.960706 3 5 cbr 1000 ------- 1 1.0 5.0 51 51
r 0.962 1 2 cbr 1000 ------- 1 1.0 5.0 56 56
+ 0.962 2 3 cbr 1000 ------- 1 1.0 5.0 56 56
- 0.962 2 3 cbr 1000 ------- 1 1.0 5.0 56 56
r 0.962706 2 3 cbr 1000 ------- 1 1.0 5.0 53 53
+ 0.962706 3 5 cbr 1000 ------- 1 1.0 5.0 53 53
- 0.962706 3 5 cbr 1000 ------- 1 1.0 5.0 53 53
+ 0.964 1 2 cbr 1000 ------- 1 1.0 5.0 58 58
- 0.964 1 2 cbr 1000 ------- 1 1.0 5.0 58 58
r 0.968706 3 5 cbr 1000 ------- 1 1.0 5.0 52 52
r 0.97 1 2 cbr 1000 ------- 1 1.0 5.0 57 57
+ 0.97 2 3 cbr 1000 ------- 1 1.0 5.0 57 57
- 0.97 2 3 cbr 1000 ------- 1 1.0 5.0 57 57
r 0.970706 2 3 cbr 1000 ------- 1 1.0 5.0 54 54
+ 0.970706 3 5 cbr 1000 ------- 1 1.0 5.0 54 54
- 0.970706 3 5 cbr 1000 ------- 1 1.0 5.0 54 54
+ 0.972 1 2 cbr 1000 ------- 1 1.0 5.0 59 59
- 0.972 1 2 cbr 1000 ------- 1 1.0 5.0 59 59
r 0.976706 3 5 cbr 1000 ------- 1 1.0 5.0 53 53
r 0.978 1 2 cbr 1000 ------- 1 1.0 5.0 58 58
+ 0.978 2 3 cbr 1000 ------- 1 1.0 5.0 58 58
- 0.978 2 3 cbr 1000 ------- 1 1.0 5.0 58 58
r 0.978706 2 3 cbr 1000 ------- 1 1.0 5.0 55 55
+ 0.978706 3 5 cbr 1000 ------- 1 1.0 5.0 55 55
- 0.978706 3 5 cbr 1000 ------- 1 1.0 5.0 55 55
+ 0.98 1 2 cbr 1000 ------- 1 1.0 5.0 60 60
- 0.98 1 2 cbr 1000 ------- 1 1.0 5.0 60 60
r 0.984706 3 5 cbr 1000 ------- 1 1.0 5.0 54 54
r 0.986 1 2 cbr 1000 ------- 1 1.0 5.0 59 59
+ 0.986 2 3 cbr 1000 ------- 1 1.0 5.0 59 59
- 0.986 2 3 cbr 1000 ------- 1 1.0 5.0 59 59
r 0.986706 2 3 cbr 1000 ------- 1 1.0 5.0 56 56
+ 0.986706 3 5 cbr 1000 ------- 1 1.0 5.0 56 56
- 0.986706 3 5 cbr 1000 ------- 1 1.0 5.0 56 56
+ 0.988 1 2 cbr 1000 ------- 1 1.0 5.0 61 61
- 0.988 1 2 cbr 1000 ------- 1 1.0 5.0 61 61
r 0.992706 3 5 cbr 1000 ------- 1 1.0 5.0 55 55
r 0.994 1 2 cbr 1000 ------- 1 1.0 5.0 60 60
+ 0.994 2 3 cbr 1000 ------- 1 1.0 5.0 60 60
- 0.994 2 3 cbr 1000 ------- 1 1.0 5.0 60 60
r 0.994706 2 3 cbr 1000 ------- 1 1.0 5.0 57 57
+ 0.994706 3 5 cbr 1000 ------- 1 1.0 5.0 57 57
- 0.994706 3 5 cbr 1000 ------- 1 1.0 5.0 57 57
+ 0.996 1 2 cbr 1000 ------- 1 1.0 5.0 62 62
- 0.996 1 2 cbr 1000 ------- 1 1.0 5.0 62 62
+ 1 0 2 tcp 40 ------- 2 0.0 4.0 0 63
- 1 0 2 tcp 40 ------- 2 0.0 4.0 0 63
r 1.000706 3 5 cbr 1000 ------- 1 1.0 5.0 56 56
r 1.002 1 2 cbr 1000 ------- 1 1.0 5.0 61 61
+ 1.002 2 3 cbr 1000 ------- 1 1.0 5.0 61 61
- 1.002 2 3 cbr 1000 ------- 1 1.0 5.0 61 61
r 1.002706 2 3 cbr 1000 ------- 1 1.0 5.0 58 58
+ 1.002706 3 5 cbr 1000 ------- 1 1.0 5.0 58 58
- 1.002706 3 5 cbr 1000 ------- 1 1.0 5.0 58 58
+ 1.004 1 2 cbr 1000 ------- 1 1.0 5.0 63 64
- 1.004 1 2 cbr 1000 ------- 1 1.0 5.0 63 64
r 1.008706 3 5 cbr 1000 ------- 1 1.0 5.0 57 57
r 1.01 1 2 cbr 1000 ------- 1 1.0 5.0 62 62
+ 1.01 2 3 cbr 1000 ------- 1 1.0 5.0 62 62
- 1.01 2 3 cbr 1000 ------- 1 1.0 5.0 62 62
r 1.01016 0 2 tcp 40 ------- 2 0.0 4.0 0 63
+ 1.01016 2 3 tcp 40 ------- 2 0.0 4.0 0 63
r 1.010706 2 3 cbr 1000 ------- 1 1.0 5.0 59 59
+ 1.010706 3 5 cbr 1000 ------- 1 1.0 5.0 59 59
- 1.010706 3 5 cbr 1000 ------- 1 1.0 5.0 59 59
+ 1.012 1 2 cbr 1000 ------- 1 1.0 5.0 64 65
- 1.012 1 2 cbr 1000 ------- 1 1.0 5.0 64 65
- 1.014706 2 3 tcp 40 ------- 2 0.0 4.0 0 63
r 1.016706 3 5 cbr 1000 ------- 1 1.0 5.0 58 58
r 1.018 1 2 cbr 1000 ------- 1 1.0 5.0 63 64
+ 1.018 2 3 cbr 1000 ------- 1 1.0 5.0 63 64
- 1.018 2 3 cbr 1000 ------- 1 1.0 5.0 63 64
r 1.018706 2 3 cbr 1000 ------- 1 1.0 5.0 60 60
+ 1.018706 3 5 cbr 1000 ------- 1 1.0 5.0 60 60
- 1.018706 3 5 cbr 1000 ------- 1 1.0 5.0 60 60
+ 1.02 1 2 cbr 1000 ------- 1 1.0 5.0 65 66
- 1.02 1 2 cbr 1000 ------- 1 1.0 5.0 65 66
r 1.024706 3 5 cbr 1000 ------- 1 1.0 5.0 59 59
r 1.026 1 2 cbr 1000 ------- 1 1.0 5.0 64 65
+ 1.026 2 3 cbr 1000 ------- 1 1.0 5.0 64 65
- 1.026 2 3 cbr 1000 ------- 1 1.0 5.0 64 65
r 1.026706 2 3 cbr 1000 ------- 1 1.0 5.0 61 61
+ 1.026706 3 5 cbr 1000 ------- 1 1.0 5.0 61 61
- 1.026706 3 5 cbr 1000 ------- 1 1.0 5.0 61 61
+ 1.028 1 2 cbr 1000 ------- 1 1.0 5.0 66 67
- 1.028 1 2 cbr 1000 ------- 1 1.0 5.0 66 67
r 1.032706 3 5 cbr 1000 ------- 1 1.0 5.0 60 60
r 1.034 1 2 cbr 1000 ------- 1 1.0 5.0 65 66
+ 1.034 2 3 cbr 1000 ------- 1 1.0 5.0 65 66
- 1.034 2 3 cbr 1000 ------- 1 1.0 5.0 65 66
r 1.034706 2 3 cbr 1000 ------- 1 1.0 5.0 62 62
+ 1.034706 3 5 cbr 1000 ------- 1 1.0 5.0 62 62
- 1.034706 3 5 cbr 1000 ------- 1 1.0 5.0 62 62
r 1.034894 2 3 tcp 40 ------- 2 0.0 4.0 0 63
+ 1.034894 3 4 tcp 40 ------- 2 0.0 4.0 0 63
- 1.034894 3 4 tcp 40 ------- 2 0.0 4.0 0 63
+ 1.036 1 2 cbr 1000 ------- 1 1.0 5.0 67 68
- 1.036 1 2 cbr 1000 ------- 1 1.0 5.0 67 68
r 1.040706 3 5 cbr 1000 ------- 1 1.0 5.0 61 61
r 1.042 1 2 cbr 1000 ------- 1 1.0 5.0 66 67
+ 1.042 2 3 cbr 1000 ------- 1 1.0 5.0 66 67
- 1.042 2 3 cbr 1000 ------- 1 1.0 5.0 66 67
r 1.042706 2 3 cbr 1000 ------- 1 1.0 5.0 63 64
+ 1.042706 3 5 cbr 1000 ------- 1 1.0 5.0 63 64
- 1.042706 3 5 cbr 1000 ------- 1 1.0 5.0 63 64
+ 1.044 1 2 cbr 1000 ------- 1 1.0 5.0 68 69
- 1.044 1 2 cbr 1000 ------- 1 1.0 5.0 68 69
r 1.045054 3 4 tcp 40 ------- 2 0.0 4.0 0 63
+ 1.045054 4 3 ack 40 ------- 2 4.0 0.0 0 70
- 1.045054 4 3 ack 40 ------- 2 4.0 0.0 0 70
r 1.048706 3 5 cbr 1000 ------- 1 1.0 5.0 62 62
r 1.05 1 2 cbr 1000 ------- 1 1.0 5.0 67 68
+ 1.05 2 3 cbr 1000 ------- 1 1.0 5.0 67 68
- 1.05 2 3 cbr 1000 ------- 1 1.0 5.0 67 68
r 1.050706 2 3 cbr 1000 ------- 1 1.0 5.0 64 65
+ 1.050706 3 5 cbr 1000 ------- 1 1.0 5.0 64 65
- 1.050706 3 5 cbr 1000 ------- 1 1.0 5.0 64 65
+ 1.052 1 2 cbr 1000 ------- 1 1.0 5.0 69 71
- 1.052 1 2 cbr 1000 ------- 1 1.0 5.0 69 71
r 1.055214 4 3 ack 40 ------- 2 4.0 0.0 0 70
+ 1.055214 3 2 ack 40 ------- 2 4.0 0.0 0 70
- 1.055214 3 2 ack 40 ------- 2 4.0 0.0 0 70
r 1.056706 3 5 cbr 1000 ------- 1 1.0 5.0 63 64
r 1.058 1 2 cbr 1000 ------- 1 1.0 5.0 68 69
+ 1.058 2 3 cbr 1000 ------- 1 1.0 5.0 68 69
- 1.058 2 3 cbr 1000 ------- 1 1.0 5.0 68 69
r 1.058706 2 3 cbr 1000 ------- 1 1.0 5.0 65 66
+ 1.058706 3 5 cbr 1000 ------- 1 1.0 5.0 65 66
- 1.058706 3 5 cbr 1000 ------- 1 1.0 5.0 65 66
+ 1.06 1 2 cbr 1000 ------- 1 1.0 5.0 70 72
- 1.06 1 2 cbr 1000 ------- 1 1.0 5.0 70 72
r 1.064706 3 5 cbr 1000 ------- 1 1.0 5.0 64 65
r 1.066 1 2 cbr 1000 ------- 1 1.0 5.0 69 71
+ 1.066 2 3 cbr 1000 ------- 1 1.0 5.0 69 71
- 1.066 2 3 cbr 1000 ------- 1 1.0 5.0 69 71
r 1.066706 2 3 cbr 1000 ------- 1 1.0 5.0 66 67
+ 1.066706 3 5 cbr 1000 ------- 1 1.0 5.0 66 67
- 1.066706 3 5 cbr 1000 ------- 1 1.0 5.0 66 67
+ 1.068 1 2 cbr 1000 ------- 1 1.0 5.0 71 73
- 1.068 1 2 cbr 1000 ------- 1 1.0 5.0 71 73
r 1.072706 3 5 cbr 1000 ------- 1 1.0 5.0 65 66
r 1.074 1 2 cbr 1000 ------- 1 1.0 5.0 70 72
+ 1.074 2 3 cbr 1000 ------- 1 1.0 5.0 70 72
- 1.074 2 3 cbr 1000 ------- 1 1.0 5.0 70 72
r 1.074706 2 3 cbr 1000 ------- 1 1.0 5.0 67 68
+ 1.074706 3 5 cbr 1000 ------- 1 1.0 5.0 67 68
- 1.074706 3 5 cbr 1000 ------- 1 1.0 5.0 67 68
r 1.075402 3 2 ack 40 ------- 2 4.0 0.0 0 70
+ 1.075402 2 0 ack 40 ------- 2 4.0 0.0 0 70
- 1.075402 2 0 ack 40 ------- 2 4.0 0.0 0 70
+ 1.076 1 2 cbr 1000 ------- 1 1.0 5.0 72 74
- 1.076 1 2 cbr 1000 ------- 1 1.0 5.0 72 74
r 1.080706 3 5 cbr 1000 ------- 1 1.0 5.0 66 67
r 1.082 1 2 cbr 1000 ------- 1 1.0 5.0 71 73
+ 1.082 2 3 cbr 1000 ------- 1 1.0 5.0 71 73
- 1.082 2 3 cbr 1000 ------- 1 1.0 5.0 71 73
r 1.082706 2 3 cbr 1000 ------- 1 1.0 5.0 68 69
+ 1.082706 3 5 cbr 1000 ------- 1 1.0 5.0 68 69
- 1.082706 3 5 cbr 1000 ------- 1 1.0 5.0 68 69
+ 1.084 1 2 cbr 1000 ------- 1 1.0 5.0 73 75